Program Version,EnergyPlus, Version 8.5.0-c87e61b44b, YMD=2018.01.11 21:09
1,5,Environment Title[],Latitude[deg],Longitude[deg],Time Zone[],Elevation[m]
2,6,Day of Simulation[],Month[],Day of Month[],DST Indicator[1=yes 0=no],Hour[],StartMinute[],EndMinute[],DayType
3,3,Cumulative Day of Simulation[],Month[],Day of Month[],DST Indicator[1=yes 0=no],DayType  ! When Daily Meters Requested
4,2,Cumulative Days of Simulation[],Month[]  ! When Monthly Meters Requested
5,1,Cumulative Days of Simulation[] ! When Run Period Meters Requested
9,1,Electricity:Facility [J] !TimeStep
715,1,DistrictCooling:Facility [J] !TimeStep
684,1,DistrictHeating:Facility [J] !TimeStep
End of Data Dictionary
1,OSLO/FORNEBU ANN CLG .4% CONDNS DB=>MWB,  59.90,  10.62,   1.00,  17.00
2,1, 7,21, 0, 1, 0.00,15.00,SummerDesignDay
9,16740033.4800669
684,0.0
715,2476192.38364125
2,1, 7,21, 0, 1,15.00,30.00,SummerDesignDay
9,16740033.4800669
684,0.0
715,2231321.71199769
2,1, 7,21, 0, 1,30.00,45.00,SummerDesignDay
9,16740033.4800669
684,0.0
715,1978350.89814954
2,1, 7,21, 0, 1,45.00,60.00,SummerDesignDay
9,16740033.4800669
684,0.0
715,1721151.4388216
2,1, 7,21, 0, 2, 0.00,15.00,SummerDesignDay
9,16740033.4800669
684,0.0
715,1496956.85806235
2,1, 7,21, 0, 2,15.00,30.00,SummerDesignDay
9,16740033.4800669
684,0.0
715,1274111.52311925
2,1, 7,21, 0, 2,30.00,45.00,SummerDesignDay
9,16740033.4800669
684,0.0
715,1050642.71016154
2,1, 7,21, 0, 2,45.00,60.00,SummerDesignDay
9,16740033.4800669
684,0.0
715,824390.748933185
2,1, 7,21, 0, 3, 0.00,15.00,SummerDesignDay
9,16740033.4800669
684,0.0
715,617850.373500159
2,1, 7,21, 0, 3,15.00,30.00,SummerDesignDay
9,16740033.4800669
684,0.0
715,494003.539009508
2,1, 7,21, 0, 3,30.00,45.00,SummerDesignDay
9,16740033.4800669
684,0.0
715,407875.522535536
2,1, 7,21, 0, 3,45.00,60.00,SummerDesignDay
9,16740033.4800669
684,0.0
715,321286.691888803
2,1, 7,21, 0, 4, 0.00,15.00,SummerDesignDay
9,16740033.4800669
684,0.0
715,234177.449969377
2,1, 7,21, 0, 4,15.00,30.00,SummerDesignDay
9,16740033.4800669
684,0.0
715,146488.008206571
2,1, 7,21, 0, 4,30.00,45.00,SummerDesignDay
9,16740033.4800669
684,0.0
715,114969.541941946
2,1, 7,21, 0, 4,45.00,60.00,SummerDesignDay
9,16740033.4800669
684,0.0
715,127054.255900046
2,1, 7,21, 0, 5, 0.00,15.00,SummerDesignDay
9,16740033.4800669
684,0.0
715,201581.052327449
2,1, 7,21, 0, 5,15.00,30.00,SummerDesignDay
9,16740033.4800669
684,0.0
715,328807.913923323
2,1, 7,21, 0, 5,30.00,45.00,SummerDesignDay
9,16740033.4800669
684,0.0
715,438008.290535241
2,1, 7,21, 0, 5,45.00,60.00,SummerDesignDay
9,16740033.4800669
684,0.0
715,527833.022150531
2,1, 7,21, 0, 6, 0.00,15.00,SummerDesignDay
9,16740033.4800669
684,0.0
715,644705.718921357
2,1, 7,21, 0, 6,15.00,30.00,SummerDesignDay
9,16740033.4800669
684,0.0
715,751082.35128911
2,1, 7,21, 0, 6,30.00,45.00,SummerDesignDay
9,16740033.4800669
684,0.0
715,861962.79991007
2,1, 7,21, 0, 6,45.00,60.00,SummerDesignDay
9,16740033.4800669
684,0.0
715,957553.100275304
2,1, 7,21, 0, 7, 0.00,15.00,SummerDesignDay
9,16740033.4800669
684,0.0
715,29381149.1057708
2,1, 7,21, 0, 7,15.00,30.00,SummerDesignDay
9,16740033.4800669
684,0.0
715,13356690.8824835
2,1, 7,21, 0, 7,30.00,45.00,SummerDesignDay
9,16740033.4800669
684,0.0
715,19529575.6304947
2,1, 7,21, 0, 7,45.00,60.00,SummerDesignDay
9,16740033.4800669
684,0.0
715,14581666.3893019
2,1, 7,21, 0, 8, 0.00,15.00,SummerDesignDay
9,16740033.4800669
684,0.0
715,15293435.562022
2,1, 7,21, 0, 8,15.00,30.00,SummerDesignDay
9,16740033.4800669
684,0.0
715,15951016.2046597
2,1, 7,21, 0, 8,30.00,45.00,SummerDesignDay
9,16740033.4800669
684,0.0
715,16638610.2966817
2,1, 7,21, 0, 8,45.00,60.00,SummerDesignDay
9,16740033.4800669
684,0.0
715,17322948.8423109
2,1, 7,21, 0, 9, 0.00,15.00,SummerDesignDay
9,16740033.4800669
684,0.0
715,18091253.5637491
2,1, 7,21, 0, 9,15.00,30.00,SummerDesignDay
9,16740033.4800669
684,0.0
715,18869362.4663016
2,1, 7,21, 0, 9,30.00,45.00,SummerDesignDay
9,16740033.4800669
684,0.0
715,19861977.0936206
2,1, 7,21, 0, 9,45.00,60.00,SummerDesignDay
9,16740033.4800669
684,0.0
715,21472913.6922822
2,1, 7,21, 0,10, 0.00,15.00,SummerDesignDay
9,16740033.4800669
684,0.0
715,22657036.1668404
2,1, 7,21, 0,10,15.00,30.00,SummerDesignDay
9,16740033.4800669
684,0.0
715,24427957.648884
2,1, 7,21, 0,10,30.00,45.00,SummerDesignDay
9,16740033.4800669
684,0.0
715,25740362.1924559
2,1, 7,21, 0,10,45.00,60.00,SummerDesignDay
9,16740033.4800669
684,0.0
715,27162427.1901602
2,1, 7,21, 0,11, 0.00,15.00,SummerDesignDay
9,16740033.4800669
684,0.0
715,28366674.2266924
2,1, 7,21, 0,11,15.00,30.00,SummerDesignDay
9,16740033.4800669
684,0.0
715,29531899.0695158
2,1, 7,21, 0,11,30.00,45.00,SummerDesignDay
9,16740033.4800669
684,0.0
715,30673516.9782708
2,1, 7,21, 0,11,45.00,60.00,SummerDesignDay
9,16740033.4800669
684,0.0
715,31896852.0411702
2,1, 7,21, 0,12, 0.00,15.00,SummerDesignDay
9,16740033.4800669
684,0.0
715,32869642.092928
2,1, 7,21, 0,12,15.00,30.00,SummerDesignDay
9,16740033.4800669
684,0.0
715,33857225.1862136
2,1, 7,21, 0,12,30.00,45.00,SummerDesignDay
9,16740033.4800669
684,0.0
715,34858577.9991922
2,1, 7,21, 0,12,45.00,60.00,SummerDesignDay
9,16740033.4800669
684,0.0
715,35856401.7537819
2,1, 7,21, 0,13, 0.00,15.00,SummerDesignDay
9,16740033.4800669
684,0.0
715,36711862.8584744
2,1, 7,21, 0,13,15.00,30.00,SummerDesignDay
9,16740033.4800669
684,0.0
715,37552049.7744105
2,1, 7,21, 0,13,30.00,45.00,SummerDesignDay
9,16740033.4800669
684,0.0
715,38384239.4239016
2,1, 7,21, 0,13,45.00,60.00,SummerDesignDay
9,16740033.4800669
684,0.0
715,39195376.3113568
2,1, 7,21, 0,14, 0.00,15.00,SummerDesignDay
9,16740033.4800669
684,0.0
715,39774468.1121777
2,1, 7,21, 0,14,15.00,30.00,SummerDesignDay
9,16740033.4800669
684,0.0
715,40314275.7827321
2,1, 7,21, 0,14,30.00,45.00,SummerDesignDay
9,16740033.4800669
684,0.0
715,40818990.4780722
2,1, 7,21, 0,14,45.00,60.00,SummerDesignDay
9,16740033.4800669
684,0.0
715,41319397.6796663
2,1, 7,21, 0,15, 0.00,15.00,SummerDesignDay
9,16740033.4800669
684,0.0
715,41568551.4647231
2,1, 7,21, 0,15,15.00,30.00,SummerDesignDay
9,16740033.4800669
684,0.0
715,41839716.2122535
2,1, 7,21, 0,15,30.00,45.00,SummerDesignDay
9,16740033.4800669
684,0.0
715,42111342.2095083
2,1, 7,21, 0,15,45.00,60.00,SummerDesignDay
9,16740033.4800669
684,0.0
715,42371745.875841
2,1, 7,21, 0,16, 0.00,15.00,SummerDesignDay
9,16740033.4800669
684,0.0
715,42197960.5676562
2,1, 7,21, 0,16,15.00,30.00,SummerDesignDay
9,16740033.4800669
684,0.0
715,41984187.1362016
2,1, 7,21, 0,16,30.00,45.00,SummerDesignDay
9,16740033.4800669
684,0.0
715,41715690.4602304
2,1, 7,21, 0,16,45.00,60.00,SummerDesignDay
9,16740033.4800669
684,0.0
715,41439129.5586
2,1, 7,21, 0,17, 0.00,15.00,SummerDesignDay
9,16740033.4800669
684,0.0
715,41064304.9544209
2,1, 7,21, 0,17,15.00,30.00,SummerDesignDay
9,16740033.4800669
684,0.0
715,40666669.9356595
2,1, 7,21, 0,17,30.00,45.00,SummerDesignDay
9,16740033.4800669
684,0.0
715,40224307.4966982
2,1, 7,21, 0,17,45.00,60.00,SummerDesignDay
9,16740033.4800669
684,0.0
715,39778543.9928686
2,1, 7,21, 0,18, 0.00,15.00,SummerDesignDay
9,16740033.4800669
684,0.0
715,39181013.0324778
2,1, 7,21, 0,18,15.00,30.00,SummerDesignDay
9,16740033.4800669
684,0.0
715,38545274.5690205
2,1, 7,21, 0,18,30.00,45.00,SummerDesignDay
9,16740033.4800669
684,0.0
715,37923091.6426037
2,1, 7,21, 0,18,45.00,60.00,SummerDesignDay
9,16740033.4800669
684,0.0
715,37333442.9405916
2,1, 7,21, 0,19, 0.00,15.00,SummerDesignDay
9,16740033.4800669
684,0.0
715,36408145.1722404
2,1, 7,21, 0,19,15.00,30.00,SummerDesignDay
9,16740033.4800669
684,0.0
715,35427007.0007386
2,1, 7,21, 0,19,30.00,45.00,SummerDesignDay
9,16740033.4800669
684,0.0
715,34377356.4863783
2,1, 7,21, 0,19,45.00,60.00,SummerDesignDay
9,16740033.4800669
684,0.0
715,33264140.7879995
2,1, 7,21, 0,20, 0.00,15.00,SummerDesignDay
9,16740033.4800669
684,0.0
715,32265843.5534972
2,1, 7,21, 0,20,15.00,30.00,SummerDesignDay
9,16740033.4800669
684,0.0
715,31195577.262748
2,1, 7,21, 0,20,30.00,45.00,SummerDesignDay
9,16740033.4800669
684,0.0
715,30027620.1398623
2,1, 7,21, 0,20,45.00,60.00,SummerDesignDay
9,16740033.4800669
684,0.0
715,28750557.3671242
2,1, 7,21, 0,21, 0.00,15.00,SummerDesignDay
9,16740033.4800669
684,0.0
715,27489190.4489066
2,1, 7,21, 0,21,15.00,30.00,SummerDesignDay
9,16740033.4800669
684,0.0
715,25951823.9310256
2,1, 7,21, 0,21,30.00,45.00,SummerDesignDay
9,16740033.4800669
684,0.0
715,24484791.9273468
2,1, 7,21, 0,21,45.00,60.00,SummerDesignDay
9,16740033.4800669
684,0.0
715,23007760.6769719
2,1, 7,21, 0,22, 0.00,15.00,SummerDesignDay
9,16740033.4800669
684,0.0
715,21555145.6045643
2,1, 7,21, 0,22,15.00,30.00,SummerDesignDay
9,16740033.4800669
684,0.0
715,20368729.0410716
2,1, 7,21, 0,22,30.00,45.00,SummerDesignDay
9,16740033.4800669
684,0.0
715,19407211.8051193
2,1, 7,21, 0,22,45.00,60.00,SummerDesignDay
9,16740033.4800669
684,0.0
715,18575710.7385315
2,1, 7,21, 0,23, 0.00,15.00,SummerDesignDay
9,16740033.4800669
684,0.0
715,0.0
2,1, 7,21, 0,23,15.00,30.00,SummerDesignDay
9,16740033.4800669
684,0.0
715,2609251.46622948
2,1, 7,21, 0,23,30.00,45.00,SummerDesignDay
9,16740033.4800669
684,0.0
715,6555160.43528182
2,1, 7,21, 0,23,45.00,60.00,SummerDesignDay
9,16740033.4800669
684,0.0
715,2093132.75536208
2,1, 7,21, 0,24, 0.00,15.00,SummerDesignDay
9,16740033.4800669
684,0.0
715,3215309.13618058
2,1, 7,21, 0,24,15.00,30.00,SummerDesignDay
9,16740033.4800669
684,0.0
715,3077869.9526941
2,1, 7,21, 0,24,30.00,45.00,SummerDesignDay
9,16740033.4800669
684,0.0
715,2866716.4549881
2,1, 7,21, 0,24,45.00,60.00,SummerDesignDay
9,16740033.4800669
684,0.0
715,2631897.9492437
1,OSLO/FORNEBU ANN CLG .4% CONDNS DP=>MDB,  59.90,  10.62,   1.00,  17.00
2,1, 7,21, 0, 1, 0.00,15.00,SummerDesignDay
9,16740033.4800669
684,0.0
715,0.0
2,1, 7,21, 0, 1,15.00,30.00,SummerDesignDay
9,16740033.4800669
684,0.0
715,0.0
2,1, 7,21, 0, 1,30.00,45.00,SummerDesignDay
9,16740033.4800669
684,0.0
715,0.0
2,1, 7,21, 0, 1,45.00,60.00,SummerDesignDay
9,16740033.4800669
684,162935.587419637
715,0.0
2,1, 7,21, 0, 2, 0.00,15.00,SummerDesignDay
9,16740033.4800669
684,200729.164736651
715,0.0
2,1, 7,21, 0, 2,15.00,30.00,SummerDesignDay
9,16740033.4800669
684,283636.284745255
715,0.0
2,1, 7,21, 0, 2,30.00,45.00,SummerDesignDay
9,16740033.4800669
684,353517.656775384
715,0.0
2,1, 7,21, 0, 2,45.00,60.00,SummerDesignDay
9,16740033.4800669
684,420001.610594371
715,0.0
2,1, 7,21, 0, 3, 0.00,15.00,SummerDesignDay
9,16740033.4800669
684,473525.552619484
715,0.0
2,1, 7,21, 0, 3,15.00,30.00,SummerDesignDay
9,16740033.4800669
684,757571.580313012
715,0.0
2,1, 7,21, 0, 3,30.00,45.00,SummerDesignDay
9,16740033.4800669
684,963313.063845734
715,0.0
2,1, 7,21, 0, 3,45.00,60.00,SummerDesignDay
9,16740033.4800669
684,1188322.42952788
715,0.0
2,1, 7,21, 0, 4, 0.00,15.00,SummerDesignDay
9,16740033.4800669
684,1413375.96090429
715,0.0
2,1, 7,21, 0, 4,15.00,30.00,SummerDesignDay
9,16740033.4800669
684,1624203.4459732
715,0.0
2,1, 7,21, 0, 4,30.00,45.00,SummerDesignDay
9,16740033.4800669
684,1756610.2559854
715,0.0
2,1, 7,21, 0, 4,45.00,60.00,SummerDesignDay
9,16740033.4800669
684,1806263.98125656
715,0.0
2,1, 7,21, 0, 5, 0.00,15.00,SummerDesignDay
9,16740033.4800669
684,1722252.91470235
715,0.0
2,1, 7,21, 0, 5,15.00,30.00,SummerDesignDay
9,16740033.4800669
684,1544554.73603096
715,0.0
2,1, 7,21, 0, 5,30.00,45.00,SummerDesignDay
9,16740033.4800669
684,1379687.16901529
715,0.0
2,1, 7,21, 0, 5,45.00,60.00,SummerDesignDay
9,16740033.4800669
684,1241084.36050001
715,0.0
2,1, 7,21, 0, 6, 0.00,15.00,SummerDesignDay
9,16740033.4800669
684,988810.855546931
715,0.0
2,1, 7,21, 0, 6,15.00,30.00,SummerDesignDay
9,16740033.4800669
684,761972.597486109
715,0.0
2,1, 7,21, 0, 6,30.00,45.00,SummerDesignDay
9,16740033.4800669
684,549705.524833662
715,0.0
2,1, 7,21, 0, 6,45.00,60.00,SummerDesignDay
9,16740033.4800669
684,374301.907721733
715,0.0
2,1, 7,21, 0, 7, 0.00,15.00,SummerDesignDay
9,16740033.4800669
684,0.0
715,0.0
2,1, 7,21, 0, 7,15.00,30.00,SummerDesignDay
9,16740033.4800669
684,0.0
715,0.0
2,1, 7,21, 0, 7,30.00,45.00,SummerDesignDay
9,16740033.4800669
684,0.0
715,0.0
2,1, 7,21, 0, 7,45.00,60.00,SummerDesignDay
9,16740033.4800669
684,0.0
715,0.0
2,1, 7,21, 0, 8, 0.00,15.00,SummerDesignDay
9,16740033.4800669
684,0.0
715,0.0
2,1, 7,21, 0, 8,15.00,30.00,SummerDesignDay
9,16740033.4800669
684,0.0
715,0.0
2,1, 7,21, 0, 8,30.00,45.00,SummerDesignDay
9,16740033.4800669
684,0.0
715,0.0
2,1, 7,21, 0, 8,45.00,60.00,SummerDesignDay
9,16740033.4800669
684,0.0
715,0.0
2,1, 7,21, 0, 9, 0.00,15.00,SummerDesignDay
9,16740033.4800669
684,0.0
715,0.0
2,1, 7,21, 0, 9,15.00,30.00,SummerDesignDay
9,16740033.4800669
684,0.0
715,0.0
2,1, 7,21, 0, 9,30.00,45.00,SummerDesignDay
9,16740033.4800669
684,0.0
715,484202.067378838
2,1, 7,21, 0, 9,45.00,60.00,SummerDesignDay
9,16740033.4800669
684,0.0
715,1702984.52340304
2,1, 7,21, 0,10, 0.00,15.00,SummerDesignDay
9,16740033.4800669
684,0.0
715,2681306.81582483
2,1, 7,21, 0,10,15.00,30.00,SummerDesignDay
9,16740033.4800669
684,0.0
715,3590182.17359295
2,1, 7,21, 0,10,30.00,45.00,SummerDesignDay
9,16740033.4800669
684,0.0
715,4694370.99313854
2,1, 7,21, 0,10,45.00,60.00,SummerDesignDay
9,16740033.4800669
684,0.0
715,5707035.02470985
2,1, 7,21, 0,11, 0.00,15.00,SummerDesignDay
9,16740033.4800669
684,0.0
715,7700894.35475247
2,1, 7,21, 0,11,15.00,30.00,SummerDesignDay
9,16740033.4800669
684,0.0
715,8957319.10664593
2,1, 7,21, 0,11,30.00,45.00,SummerDesignDay
9,16740033.4800669
684,0.0
715,10357510.8967425
2,1, 7,21, 0,11,45.00,60.00,SummerDesignDay
9,16740033.4800669
684,0.0
715,11730186.1311256
2,1, 7,21, 0,12, 0.00,15.00,SummerDesignDay
9,16740033.4800669
684,0.0
715,12776916.8818229
2,1, 7,21, 0,12,15.00,30.00,SummerDesignDay
9,16740033.4800669
684,0.0
715,13711291.9363802
2,1, 7,21, 0,12,30.00,45.00,SummerDesignDay
9,16740033.4800669
684,0.0
715,14545729.202677
2,1, 7,21, 0,12,45.00,60.00,SummerDesignDay
9,16740033.4800669
684,0.0
715,15287135.6399602
2,1, 7,21, 0,13, 0.00,15.00,SummerDesignDay
9,16740033.4800669
684,0.0
715,15860432.1270143
2,1, 7,21, 0,13,15.00,30.00,SummerDesignDay
9,16740033.4800669
684,0.0
715,16346469.2571908
2,1, 7,21, 0,13,30.00,45.00,SummerDesignDay
9,16740033.4800669
684,0.0
715,16794251.663904
2,1, 7,21, 0,13,45.00,60.00,SummerDesignDay
9,16740033.4800669
684,0.0
715,17225012.0343321
2,1, 7,21, 0,14, 0.00,15.00,SummerDesignDay
9,16740033.4800669
684,0.0
715,17573699.4655022
2,1, 7,21, 0,14,15.00,30.00,SummerDesignDay
9,16740033.4800669
684,0.0
715,17909430.2222877
2,1, 7,21, 0,14,30.00,45.00,SummerDesignDay
9,16740033.4800669
684,0.0
715,18216601.582038
2,1, 7,21, 0,14,45.00,60.00,SummerDesignDay
9,16740033.4800669
684,0.0
715,18548875.9718939
2,1, 7,21, 0,15, 0.00,15.00,SummerDesignDay
9,16740033.4800669
684,0.0
715,18765176.8781592
2,1, 7,21, 0,15,15.00,30.00,SummerDesignDay
9,16740033.4800669
684,0.0
715,18983931.8322158
2,1, 7,21, 0,15,30.00,45.00,SummerDesignDay
9,16740033.4800669
684,0.0
715,19216920.1282294
2,1, 7,21, 0,15,45.00,60.00,SummerDesignDay
9,16740033.4800669
684,0.0
715,19441158.5810858
2,1, 7,21, 0,16, 0.00,15.00,SummerDesignDay
9,16740033.4800669
684,0.0
715,19418035.378224
2,1, 7,21, 0,16,15.00,30.00,SummerDesignDay
9,16740033.4800669
684,0.0
715,19347109.9968928
2,1, 7,21, 0,16,30.00,45.00,SummerDesignDay
9,16740033.4800669
684,0.0
715,19215013.4407754
2,1, 7,21, 0,16,45.00,60.00,SummerDesignDay
9,16740033.4800669
684,0.0
715,19062360.6158374
2,1, 7,21, 0,17, 0.00,15.00,SummerDesignDay
9,16740033.4800669
684,0.0
715,18893312.6415472
2,1, 7,21, 0,17,15.00,30.00,SummerDesignDay
9,16740033.4800669
684,0.0
715,18754879.1181256
2,1, 7,21, 0,17,30.00,45.00,SummerDesignDay
9,16740033.4800669
684,0.0
715,18604405.8862546
2,1, 7,21, 0,17,45.00,60.00,SummerDesignDay
9,16740033.4800669
684,0.0
715,18422909.321478
2,1, 7,21, 0,18, 0.00,15.00,SummerDesignDay
9,16740033.4800669
684,0.0
715,18122337.0915536
2,1, 7,21, 0,18,15.00,30.00,SummerDesignDay
9,16740033.4800669
684,0.0
715,17770182.5686015
2,1, 7,21, 0,18,30.00,45.00,SummerDesignDay
9,16740033.4800669
684,0.0
715,17394720.9516676
2,1, 7,21, 0,18,45.00,60.00,SummerDesignDay
9,16740033.4800669
684,0.0
715,17006630.7008757
2,1, 7,21, 0,19, 0.00,15.00,SummerDesignDay
9,16740033.4800669
684,0.0
715,16381761.5682342
2,1, 7,21, 0,19,15.00,30.00,SummerDesignDay
9,16740033.4800669
684,0.0
715,15687432.5105541
2,1, 7,21, 0,19,30.00,45.00,SummerDesignDay
9,16740033.4800669
684,0.0
715,14912869.1576361
2,1, 7,21, 0,19,45.00,60.00,SummerDesignDay
9,16740033.4800669
684,0.0
715,14049774.9400271
2,1, 7,21, 0,20, 0.00,15.00,SummerDesignDay
9,16740033.4800669
684,0.0
715,13202528.5218909
2,1, 7,21, 0,20,15.00,30.00,SummerDesignDay
9,16740033.4800669
684,0.0
715,12302028.5383786
2,1, 7,21, 0,20,30.00,45.00,SummerDesignDay
9,16740033.4800669
684,0.0
715,11327394.8768353
2,1, 7,21, 0,20,45.00,60.00,SummerDesignDay
9,16740033.4800669
684,0.0
715,10275747.5062318
2,1, 7,21, 0,21, 0.00,15.00,SummerDesignDay
9,16740033.4800669
684,0.0
715,9215233.17442071
2,1, 7,21, 0,21,15.00,30.00,SummerDesignDay
9,16740033.4800669
684,0.0
715,7928314.30495626
2,1, 7,21, 0,21,30.00,45.00,SummerDesignDay
9,16740033.4800669
684,0.0
715,6978668.36673494
2,1, 7,21, 0,21,45.00,60.00,SummerDesignDay
9,16740033.4800669
684,0.0
715,6264495.15734615
2,1, 7,21, 0,22, 0.00,15.00,SummerDesignDay
9,16740033.4800669
684,0.0
715,5541668.49614652
2,1, 7,21, 0,22,15.00,30.00,SummerDesignDay
9,16740033.4800669
684,0.0
715,4947705.48076605
2,1, 7,21, 0,22,30.00,45.00,SummerDesignDay
9,16740033.4800669
684,0.0
715,4353133.80545992
2,1, 7,21, 0,22,45.00,60.00,SummerDesignDay
9,16740033.4800669
684,0.0
715,3787350.65977527
2,1, 7,21, 0,23, 0.00,15.00,SummerDesignDay
9,16740033.4800669
684,0.0
715,0.0
2,1, 7,21, 0,23,15.00,30.00,SummerDesignDay
9,16740033.4800669
684,0.0
715,0.0
2,1, 7,21, 0,23,30.00,45.00,SummerDesignDay
9,16740033.4800669
684,0.0
715,0.0
2,1, 7,21, 0,23,45.00,60.00,SummerDesignDay
9,16740033.4800669
684,0.0
715,0.0
2,1, 7,21, 0,24, 0.00,15.00,SummerDesignDay
9,16740033.4800669
684,0.0
715,0.0
2,1, 7,21, 0,24,15.00,30.00,SummerDesignDay
9,16740033.4800669
684,0.0
715,0.0
2,1, 7,21, 0,24,30.00,45.00,SummerDesignDay
9,16740033.4800669
684,0.0
715,0.0
2,1, 7,21, 0,24,45.00,60.00,SummerDesignDay
9,16740033.4800669
684,0.0
715,0.0
1,OSLO/FORNEBU ANN CLG .4% CONDNS ENTH=>MDB,  59.90,  10.62,   1.00,  17.00
2,1, 7,21, 0, 1, 0.00,15.00,SummerDesignDay
9,16740033.4800669
684,0.0
715,0.0
2,1, 7,21, 0, 1,15.00,30.00,SummerDesignDay
9,16740033.4800669
684,0.0
715,0.0
2,1, 7,21, 0, 1,30.00,45.00,SummerDesignDay
9,16740033.4800669
684,0.0
715,0.0
2,1, 7,21, 0, 1,45.00,60.00,SummerDesignDay
9,16740033.4800669
684,0.0
715,0.0
2,1, 7,21, 0, 2, 0.00,15.00,SummerDesignDay
9,16740033.4800669
684,0.0
715,0.0
2,1, 7,21, 0, 2,15.00,30.00,SummerDesignDay
9,16740033.4800669
684,0.0
715,0.0
2,1, 7,21, 0, 2,30.00,45.00,SummerDesignDay
9,16740033.4800669
684,0.0
715,0.0
2,1, 7,21, 0, 2,45.00,60.00,SummerDesignDay
9,16740033.4800669
684,0.0
715,0.0
2,1, 7,21, 0, 3, 0.00,15.00,SummerDesignDay
9,16740033.4800669
684,0.0
715,0.0
2,1, 7,21, 0, 3,15.00,30.00,SummerDesignDay
9,16740033.4800669
684,0.0
715,0.0
2,1, 7,21, 0, 3,30.00,45.00,SummerDesignDay
9,16740033.4800669
684,0.0
715,0.0
2,1, 7,21, 0, 3,45.00,60.00,SummerDesignDay
9,16740033.4800669
684,0.0
715,0.0
2,1, 7,21, 0, 4, 0.00,15.00,SummerDesignDay
9,16740033.4800669
684,0.0
715,0.0
2,1, 7,21, 0, 4,15.00,30.00,SummerDesignDay
9,16740033.4800669
684,0.0
715,0.0
2,1, 7,21, 0, 4,30.00,45.00,SummerDesignDay
9,16740033.4800669
684,0.0
715,0.0
2,1, 7,21, 0, 4,45.00,60.00,SummerDesignDay
9,16740033.4800669
684,0.0
715,0.0
2,1, 7,21, 0, 5, 0.00,15.00,SummerDesignDay
9,16740033.4800669
684,0.0
715,0.0
2,1, 7,21, 0, 5,15.00,30.00,SummerDesignDay
9,16740033.4800669
684,0.0
715,0.0
2,1, 7,21, 0, 5,30.00,45.00,SummerDesignDay
9,16740033.4800669
684,0.0
715,0.0
2,1, 7,21, 0, 5,45.00,60.00,SummerDesignDay
9,16740033.4800669
684,0.0
715,0.0
2,1, 7,21, 0, 6, 0.00,15.00,SummerDesignDay
9,16740033.4800669
684,0.0
715,0.0
2,1, 7,21, 0, 6,15.00,30.00,SummerDesignDay
9,16740033.4800669
684,0.0
715,0.0
2,1, 7,21, 0, 6,30.00,45.00,SummerDesignDay
9,16740033.4800669
684,0.0
715,0.0
2,1, 7,21, 0, 6,45.00,60.00,SummerDesignDay
9,16740033.4800669
684,0.0
715,0.0
2,1, 7,21, 0, 7, 0.00,15.00,SummerDesignDay
9,16740033.4800669
684,0.0
715,8861873.11166163
2,1, 7,21, 0, 7,15.00,30.00,SummerDesignDay
9,16740033.4800669
684,0.0
715,4864071.92820115
2,1, 7,21, 0, 7,30.00,45.00,SummerDesignDay
9,16740033.4800669
684,0.0
715,7105968.99300102
2,1, 7,21, 0, 7,45.00,60.00,SummerDesignDay
9,16740033.4800669
684,0.0
715,5630259.58148884
2,1, 7,21, 0, 8, 0.00,15.00,SummerDesignDay
9,16740033.4800669
684,0.0
715,6233527.43647311
2,1, 7,21, 0, 8,15.00,30.00,SummerDesignDay
9,16740033.4800669
684,0.0
715,6813463.35248357
2,1, 7,21, 0, 8,30.00,45.00,SummerDesignDay
9,16740033.4800669
684,0.0
715,7663951.1133668
2,1, 7,21, 0, 8,45.00,60.00,SummerDesignDay
9,16740033.4800669
684,0.0
715,9103762.61750495
2,1, 7,21, 0, 9, 0.00,15.00,SummerDesignDay
9,16740033.4800669
684,0.0
715,10062469.8253251
2,1, 7,21, 0, 9,15.00,30.00,SummerDesignDay
9,16740033.4800669
684,0.0
715,11370729.1346353
2,1, 7,21, 0, 9,30.00,45.00,SummerDesignDay
9,16740033.4800669
684,0.0
715,12648502.5987481
2,1, 7,21, 0, 9,45.00,60.00,SummerDesignDay
9,16740033.4800669
684,0.0
715,14059780.1146415
2,1, 7,21, 0,10, 0.00,15.00,SummerDesignDay
9,16740033.4800669
684,0.0
715,15431774.5856402
2,1, 7,21, 0,10,15.00,30.00,SummerDesignDay
9,16740033.4800669
684,0.0
715,16726830.2290328
2,1, 7,21, 0,10,30.00,45.00,SummerDesignDay
9,16740033.4800669
684,0.0
715,17973672.5961221
2,1, 7,21, 0,10,45.00,60.00,SummerDesignDay
9,16740033.4800669
684,0.0
715,19238719.1129153
2,1, 7,21, 0,11, 0.00,15.00,SummerDesignDay
9,16740033.4800669
684,0.0
715,20417170.5434505
2,1, 7,21, 0,11,15.00,30.00,SummerDesignDay
9,16740033.4800669
684,0.0
715,21577916.186199
2,1, 7,21, 0,11,30.00,45.00,SummerDesignDay
9,16740033.4800669
684,0.0
715,22726490.9346982
2,1, 7,21, 0,11,45.00,60.00,SummerDesignDay
9,16740033.4800669
684,0.0
715,23910964.4366318
2,1, 7,21, 0,12, 0.00,15.00,SummerDesignDay
9,16740033.4800669
684,0.0
715,24927846.9207738
2,1, 7,21, 0,12,15.00,30.00,SummerDesignDay
9,16740033.4800669
684,0.0
715,25965326.3691529
2,1, 7,21, 0,12,30.00,45.00,SummerDesignDay
9,16740033.4800669
684,0.0
715,28057686.9386399
2,1, 7,21, 0,12,45.00,60.00,SummerDesignDay
9,16740033.4800669
684,0.0
715,29314809.4742478
2,1, 7,21, 0,13, 0.00,15.00,SummerDesignDay
9,16740033.4800669
684,0.0
715,30786598.6501778
2,1, 7,21, 0,13,15.00,30.00,SummerDesignDay
9,16740033.4800669
684,0.0
715,32548066.4544437
2,1, 7,21, 0,13,30.00,45.00,SummerDesignDay
9,16740033.4800669
684,0.0
715,34085767.4285714
2,1, 7,21, 0,13,45.00,60.00,SummerDesignDay
9,16740033.4800669
684,0.0
715,35648769.0685071
2,1, 7,21, 0,14, 0.00,15.00,SummerDesignDay
9,16740033.4800669
684,0.0
715,36795921.7851521
2,1, 7,21, 0,14,15.00,30.00,SummerDesignDay
9,16740033.4800669
684,0.0
715,37857854.6532479
2,1, 7,21, 0,14,30.00,45.00,SummerDesignDay
9,16740033.4800669
684,0.0
715,38847189.4290959
2,1, 7,21, 0,14,45.00,60.00,SummerDesignDay
9,16740033.4800669
684,0.0
715,39816722.9204937
2,1, 7,21, 0,15, 0.00,15.00,SummerDesignDay
9,16740033.4800669
684,0.0
715,40293847.9280144
2,1, 7,21, 0,15,15.00,30.00,SummerDesignDay
9,16740033.4800669
684,0.0
715,40763574.3853987
2,1, 7,21, 0,15,30.00,45.00,SummerDesignDay
9,16740033.4800669
684,0.0
715,41191922.5041393
2,1, 7,21, 0,15,45.00,60.00,SummerDesignDay
9,16740033.4800669
684,0.0
715,41582967.2343047
2,1, 7,21, 0,16, 0.00,15.00,SummerDesignDay
9,16740033.4800669
684,0.0
715,41217048.2313395
2,1, 7,21, 0,16,15.00,30.00,SummerDesignDay
9,16740033.4800669
684,0.0
715,40746585.6595576
2,1, 7,21, 0,16,30.00,45.00,SummerDesignDay
9,16740033.4800669
684,0.0
715,40153951.1518044
2,1, 7,21, 0,16,45.00,60.00,SummerDesignDay
9,16740033.4800669
684,0.0
715,39532593.5461045
2,1, 7,21, 0,17, 0.00,15.00,SummerDesignDay
9,16740033.4800669
684,0.0
715,38690057.1995376
2,1, 7,21, 0,17,15.00,30.00,SummerDesignDay
9,16740033.4800669
684,0.0
715,37775300.3549497
2,1, 7,21, 0,17,30.00,45.00,SummerDesignDay
9,16740033.4800669
684,0.0
715,36764444.8676643
2,1, 7,21, 0,17,45.00,60.00,SummerDesignDay
9,16740033.4800669
684,0.0
715,35778120.4092744
2,1, 7,21, 0,18, 0.00,15.00,SummerDesignDay
9,16740033.4800669
684,0.0
715,34812908.4109655
2,1, 7,21, 0,18,15.00,30.00,SummerDesignDay
9,16740033.4800669
684,0.0
715,33791501.9990573
2,1, 7,21, 0,18,30.00,45.00,SummerDesignDay
9,16740033.4800669
684,0.0
715,32761753.1504941
2,1, 7,21, 0,18,45.00,60.00,SummerDesignDay
9,16740033.4800669
684,0.0
715,31760765.0018229
2,1, 7,21, 0,19, 0.00,15.00,SummerDesignDay
9,16740033.4800669
684,0.0
715,30428338.9027752
2,1, 7,21, 0,19,15.00,30.00,SummerDesignDay
9,16740033.4800669
684,0.0
715,29184521.6189172
2,1, 7,21, 0,19,30.00,45.00,SummerDesignDay
9,16740033.4800669
684,0.0
715,27799919.6593819
2,1, 7,21, 0,19,45.00,60.00,SummerDesignDay
9,16740033.4800669
684,0.0
715,26306847.9804944
2,1, 7,21, 0,20, 0.00,15.00,SummerDesignDay
9,16740033.4800669
684,0.0
715,25015794.7921276
2,1, 7,21, 0,20,15.00,30.00,SummerDesignDay
9,16740033.4800669
684,0.0
715,23991895.061598
2,1, 7,21, 0,20,30.00,45.00,SummerDesignDay
9,16740033.4800669
684,0.0
715,22906581.2568533
2,1, 7,21, 0,20,45.00,60.00,SummerDesignDay
9,16740033.4800669
684,0.0
715,21765301.2369103
2,1, 7,21, 0,21, 0.00,15.00,SummerDesignDay
9,16740033.4800669
684,0.0
715,20627106.6111077
2,1, 7,21, 0,21,15.00,30.00,SummerDesignDay
9,16740033.4800669
684,0.0
715,19259082.5621588
2,1, 7,21, 0,21,30.00,45.00,SummerDesignDay
9,16740033.4800669
684,0.0
715,17900098.8704896
2,1, 7,21, 0,21,45.00,60.00,SummerDesignDay
9,16740033.4800669
684,0.0
715,16572954.5880268
2,1, 7,21, 0,22, 0.00,15.00,SummerDesignDay
9,16740033.4800669
684,0.0
715,15281541.1502706
2,1, 7,21, 0,22,15.00,30.00,SummerDesignDay
9,16740033.4800669
684,0.0
715,14259056.9793942
2,1, 7,21, 0,22,30.00,45.00,SummerDesignDay
9,16740033.4800669
684,0.0
715,13358176.4183193
2,1, 7,21, 0,22,45.00,60.00,SummerDesignDay
9,16740033.4800669
684,0.0
715,12521484.9147422
2,1, 7,21, 0,23, 0.00,15.00,SummerDesignDay
9,16740033.4800669
684,0.0
715,0.0
2,1, 7,21, 0,23,15.00,30.00,SummerDesignDay
9,16740033.4800669
684,0.0
715,0.0
2,1, 7,21, 0,23,30.00,45.00,SummerDesignDay
9,16740033.4800669
684,0.0
715,0.0
2,1, 7,21, 0,23,45.00,60.00,SummerDesignDay
9,16740033.4800669
684,0.0
715,0.0
2,1, 7,21, 0,24, 0.00,15.00,SummerDesignDay
9,16740033.4800669
684,0.0
715,0.0
2,1, 7,21, 0,24,15.00,30.00,SummerDesignDay
9,16740033.4800669
684,0.0
715,0.0
2,1, 7,21, 0,24,30.00,45.00,SummerDesignDay
9,16740033.4800669
684,0.0
715,0.0
2,1, 7,21, 0,24,45.00,60.00,SummerDesignDay
9,16740033.4800669
684,0.0
715,0.0
1,OSLO/FORNEBU ANN CLG .4% CONDNS WB=>MDB,  59.90,  10.62,   1.00,  17.00
2,1, 7,21, 0, 1, 0.00,15.00,SummerDesignDay
9,16740033.4800669
684,0.0
715,0.0
2,1, 7,21, 0, 1,15.00,30.00,SummerDesignDay
9,16740033.4800669
684,0.0
715,0.0
2,1, 7,21, 0, 1,30.00,45.00,SummerDesignDay
9,16740033.4800669
684,0.0
715,0.0
2,1, 7,21, 0, 1,45.00,60.00,SummerDesignDay
9,16740033.4800669
684,0.0
715,0.0
2,1, 7,21, 0, 2, 0.00,15.00,SummerDesignDay
9,16740033.4800669
684,0.0
715,0.0
2,1, 7,21, 0, 2,15.00,30.00,SummerDesignDay
9,16740033.4800669
684,0.0
715,0.0
2,1, 7,21, 0, 2,30.00,45.00,SummerDesignDay
9,16740033.4800669
684,0.0
715,0.0
2,1, 7,21, 0, 2,45.00,60.00,SummerDesignDay
9,16740033.4800669
684,0.0
715,0.0
2,1, 7,21, 0, 3, 0.00,15.00,SummerDesignDay
9,16740033.4800669
684,0.0
715,0.0
2,1, 7,21, 0, 3,15.00,30.00,SummerDesignDay
9,16740033.4800669
684,0.0
715,0.0
2,1, 7,21, 0, 3,30.00,45.00,SummerDesignDay
9,16740033.4800669
684,0.0
715,0.0
2,1, 7,21, 0, 3,45.00,60.00,SummerDesignDay
9,16740033.4800669
684,0.0
715,0.0
2,1, 7,21, 0, 4, 0.00,15.00,SummerDesignDay
9,16740033.4800669
684,0.0
715,0.0
2,1, 7,21, 0, 4,15.00,30.00,SummerDesignDay
9,16740033.4800669
684,0.0
715,0.0
2,1, 7,21, 0, 4,30.00,45.00,SummerDesignDay
9,16740033.4800669
684,0.0
715,0.0
2,1, 7,21, 0, 4,45.00,60.00,SummerDesignDay
9,16740033.4800669
684,0.0
715,0.0
2,1, 7,21, 0, 5, 0.00,15.00,SummerDesignDay
9,16740033.4800669
684,0.0
715,0.0
2,1, 7,21, 0, 5,15.00,30.00,SummerDesignDay
9,16740033.4800669
684,0.0
715,0.0
2,1, 7,21, 0, 5,30.00,45.00,SummerDesignDay
9,16740033.4800669
684,0.0
715,0.0
2,1, 7,21, 0, 5,45.00,60.00,SummerDesignDay
9,16740033.4800669
684,0.0
715,0.0
2,1, 7,21, 0, 6, 0.00,15.00,SummerDesignDay
9,16740033.4800669
684,0.0
715,0.0
2,1, 7,21, 0, 6,15.00,30.00,SummerDesignDay
9,16740033.4800669
684,0.0
715,0.0
2,1, 7,21, 0, 6,30.00,45.00,SummerDesignDay
9,16740033.4800669
684,0.0
715,0.0
2,1, 7,21, 0, 6,45.00,60.00,SummerDesignDay
9,16740033.4800669
684,0.0
715,0.0
2,1, 7,21, 0, 7, 0.00,15.00,SummerDesignDay
9,16740033.4800669
684,0.0