Program Version,EnergyPlus, Version 8.5.0-c87e61b44b, YMD=2018.01.11 23:29
1,5,Environment Title[],Latitude[deg],Longitude[deg],Time Zone[],Elevation[m]
2,6,Day of Simulation[],Month[],Day of Month[],DST Indicator[1=yes 0=no],Hour[],StartMinute[],EndMinute[],DayType
3,3,Cumulative Day of Simulation[],Month[],Day of Month[],DST Indicator[1=yes 0=no],DayType  ! When Daily Meters Requested
4,2,Cumulative Days of Simulation[],Month[]  ! When Monthly Meters Requested
5,1,Cumulative Days of Simulation[] ! When Run Period Meters Requested
9,1,Electricity:Facility [J] !TimeStep
1375,1,DistrictCooling:Facility [J] !TimeStep
1344,1,DistrictHeating:Facility [J] !TimeStep
End of Data Dictionary
1,PIACENZA ANN CLG .4% CONDNS DB=>MWB,   1.37, 103.98,   8.00,  16.00
2,1, 8,21, 0, 1, 0.00,15.00,SummerDesignDay
9,45918551.2121025
1344,0.0
1375,32890183.1301026
2,1, 8,21, 0, 1,15.00,30.00,SummerDesignDay
9,45918551.2121025
1344,0.0
1375,32146009.4005522
2,1, 8,21, 0, 1,30.00,45.00,SummerDesignDay
9,45918551.2121025
1344,0.0
1375,31377993.7936773
2,1, 8,21, 0, 1,45.00,60.00,SummerDesignDay
9,45918551.2121025
1344,0.0
1375,30789197.8891009
2,1, 8,21, 0, 2, 0.00,15.00,SummerDesignDay
9,45918551.2121025
1344,0.0
1375,30444614.1814507
2,1, 8,21, 0, 2,15.00,30.00,SummerDesignDay
9,45918551.2121025
1344,0.0
1375,30158078.440415
2,1, 8,21, 0, 2,30.00,45.00,SummerDesignDay
9,45918551.2121025
1344,0.0
1375,29880608.1016323
2,1, 8,21, 0, 2,45.00,60.00,SummerDesignDay
9,45918551.2121025
1344,0.0
1375,29595752.8929858
2,1, 8,21, 0, 3, 0.00,15.00,SummerDesignDay
9,45918551.2121025
1344,0.0
1375,29351217.2730352
2,1, 8,21, 0, 3,15.00,30.00,SummerDesignDay
9,45918551.2121025
1344,0.0
1375,29103982.9336605
2,1, 8,21, 0, 3,30.00,45.00,SummerDesignDay
9,45918551.2121025
1344,0.0
1375,28853865.4884989
2,1, 8,21, 0, 3,45.00,60.00,SummerDesignDay
9,45918551.2121025
1344,0.0
1375,28602458.2324316
2,1, 8,21, 0, 4, 0.00,15.00,SummerDesignDay
9,45918551.2121025
1344,0.0
1375,28351868.3878605
2,1, 8,21, 0, 4,15.00,30.00,SummerDesignDay
9,45918551.2121025
1344,0.0
1375,28097340.0657009
2,1, 8,21, 0, 4,30.00,45.00,SummerDesignDay
9,45918551.2121025
1344,0.0
1375,27840357.694682
2,1, 8,21, 0, 4,45.00,60.00,SummerDesignDay
9,45918551.2121025
1344,0.0
1375,27579210.2311452
2,1, 8,21, 0, 5, 0.00,15.00,SummerDesignDay
9,45918551.2121025
1344,0.0
1375,27362750.6682691
2,1, 8,21, 0, 5,15.00,30.00,SummerDesignDay
9,45918551.2121025
1344,0.0
1375,27147308.0319159
2,1, 8,21, 0, 5,30.00,45.00,SummerDesignDay
9,45918551.2121025
1344,0.0
1375,26930079.6224765
2,1, 8,21, 0, 5,45.00,60.00,SummerDesignDay
9,45918551.2121025
1344,0.0
1375,26710663.0451895
2,1, 8,21, 0, 6, 0.00,15.00,SummerDesignDay
9,45918551.2121025
1344,0.0
1375,26678020.6834027
2,1, 8,21, 0, 6,15.00,30.00,SummerDesignDay
9,45918551.2121025
1344,0.0
1375,26655169.6909269
2,1, 8,21, 0, 6,30.00,45.00,SummerDesignDay
9,45918551.2121025
1344,0.0
1375,26634128.6598032
2,1, 8,21, 0, 6,45.00,60.00,SummerDesignDay
9,45918551.2121025
1344,0.0
1375,26613879.2614008
2,1, 8,21, 0, 7, 0.00,15.00,SummerDesignDay
9,45918551.2121025
1344,0.0
1375,110760478.126549
2,1, 8,21, 0, 7,15.00,30.00,SummerDesignDay
9,45918551.2121025
1344,0.0
1375,45747796.934404
2,1, 8,21, 0, 7,30.00,45.00,SummerDesignDay
9,45918551.2121025
1344,0.0
1375,84935213.0724835
2,1, 8,21, 0, 7,45.00,60.00,SummerDesignDay
9,45918551.2121025
1344,0.0
1375,80422931.9988523
2,1, 8,21, 0, 8, 0.00,15.00,SummerDesignDay
9,45918551.2121025
1344,0.0
1375,81219025.7584124
2,1, 8,21, 0, 8,15.00,30.00,SummerDesignDay
9,45918551.2121025
1344,0.0
1375,85214824.3373657
2,1, 8,21, 0, 8,30.00,45.00,SummerDesignDay
9,45918551.2121025
1344,0.0
1375,89121175.9873004
2,1, 8,21, 0, 8,45.00,60.00,SummerDesignDay
9,45918551.2121025
1344,0.0
1375,92995816.5843574
2,1, 8,21, 0, 9, 0.00,15.00,SummerDesignDay
9,45918551.2121025
1344,0.0
1375,96656867.8886392
2,1, 8,21, 0, 9,15.00,30.00,SummerDesignDay
9,45918551.2121025
1344,0.0
1375,100188121.09389
2,1, 8,21, 0, 9,30.00,45.00,SummerDesignDay
9,45918551.2121025
1344,0.0
1375,103733340.885848
2,1, 8,21, 0, 9,45.00,60.00,SummerDesignDay
9,45918551.2121025
1344,0.0
1375,107302323.594108
2,1, 8,21, 0,10, 0.00,15.00,SummerDesignDay
9,45918551.2121025
1344,0.0
1375,110440810.73953
2,1, 8,21, 0,10,15.00,30.00,SummerDesignDay
9,45918551.2121025
1344,0.0
1375,113265262.857056
2,1, 8,21, 0,10,30.00,45.00,SummerDesignDay
9,45918551.2121025
1344,0.0
1375,116148828.892429
2,1, 8,21, 0,10,45.00,60.00,SummerDesignDay
9,45918551.2121025
1344,0.0
1375,118889345.423767
2,1, 8,21, 0,11, 0.00,15.00,SummerDesignDay
9,45918551.2121025
1344,0.0
1375,121166642.192491
2,1, 8,21, 0,11,15.00,30.00,SummerDesignDay
9,45918551.2121025
1344,0.0
1375,123531988.512119
2,1, 8,21, 0,11,30.00,45.00,SummerDesignDay
9,45918551.2121025
1344,0.0
1375,125843842.732344
2,1, 8,21, 0,11,45.00,60.00,SummerDesignDay
9,45918551.2121025
1344,0.0
1375,128038109.327315
2,1, 8,21, 0,12, 0.00,15.00,SummerDesignDay
9,45918551.2121025
1344,0.0
1375,129339481.147991
2,1, 8,21, 0,12,15.00,30.00,SummerDesignDay
9,45918551.2121025
1344,0.0
1375,130824408.783063
2,1, 8,21, 0,12,30.00,45.00,SummerDesignDay
9,45918551.2121025
1344,0.0
1375,132527478.531642
2,1, 8,21, 0,12,45.00,60.00,SummerDesignDay
9,45918551.2121025
1344,0.0
1375,134302896.704773
2,1, 8,21, 0,13, 0.00,15.00,SummerDesignDay
9,45918551.2121025
1344,0.0
1375,135788625.531116
2,1, 8,21, 0,13,15.00,30.00,SummerDesignDay
9,45918551.2121025
1344,0.0
1375,137343562.403615
2,1, 8,21, 0,13,30.00,45.00,SummerDesignDay
9,45918551.2121025
1344,0.0
1375,138966810.426508
2,1, 8,21, 0,13,45.00,60.00,SummerDesignDay
9,45918551.2121025
1344,0.0
1375,140479907.03557
2,1, 8,21, 0,14, 0.00,15.00,SummerDesignDay
9,45918551.2121025
1344,0.0
1375,141384991.560745
2,1, 8,21, 0,14,15.00,30.00,SummerDesignDay
9,45918551.2121025
1344,0.0
1375,142378119.896831
2,1, 8,21, 0,14,30.00,45.00,SummerDesignDay
9,45918551.2121025
1344,0.0
1375,143469223.579255
2,1, 8,21, 0,14,45.00,60.00,SummerDesignDay
9,45918551.2121025
1344,0.0
1375,144615110.224087
2,1, 8,21, 0,15, 0.00,15.00,SummerDesignDay
9,45918551.2121025
1344,0.0
1375,144947899.787954
2,1, 8,21, 0,15,15.00,30.00,SummerDesignDay
9,45918551.2121025
1344,0.0
1375,145298063.900185
2,1, 8,21, 0,15,30.00,45.00,SummerDesignDay
9,45918551.2121025
1344,0.0
1375,145649882.400813
2,1, 8,21, 0,15,45.00,60.00,SummerDesignDay
9,45918551.2121025
1344,0.0
1375,146113786.048039
2,1, 8,21, 0,16, 0.00,15.00,SummerDesignDay
9,45918551.2121025
1344,0.0
1375,145821378.492891
2,1, 8,21, 0,16,15.00,30.00,SummerDesignDay
9,45918551.2121025
1344,0.0
1375,145603662.98967
2,1, 8,21, 0,16,30.00,45.00,SummerDesignDay
9,45918551.2121025
1344,0.0
1375,145418271.249108
2,1, 8,21, 0,16,45.00,60.00,SummerDesignDay
9,45918551.2121025
1344,0.0
1375,145223340.60046
2,1, 8,21, 0,17, 0.00,15.00,SummerDesignDay
9,45918551.2121025
1344,0.0
1375,144661628.029953
2,1, 8,21, 0,17,15.00,30.00,SummerDesignDay
9,45918551.2121025
1344,0.0
1375,144044750.132985
2,1, 8,21, 0,17,30.00,45.00,SummerDesignDay
9,45918551.2121025
1344,0.0
1375,143251950.96511
2,1, 8,21, 0,17,45.00,60.00,SummerDesignDay
9,45918551.2121025
1344,0.0
1375,142506017.245779
2,1, 8,21, 0,18, 0.00,15.00,SummerDesignDay
9,45918551.2121025
1344,0.0
1375,141270892.323902
2,1, 8,21, 0,18,15.00,30.00,SummerDesignDay
9,45918551.2121025
1344,0.0
1375,139760228.163695
2,1, 8,21, 0,18,30.00,45.00,SummerDesignDay
9,45918551.2121025
1344,0.0
1375,137946921.349421
2,1, 8,21, 0,18,45.00,60.00,SummerDesignDay
9,45918551.2121025
1344,0.0
1375,136110770.003753
2,1, 8,21, 0,19, 0.00,15.00,SummerDesignDay
9,45918551.2121025
1344,0.0
1375,133178400.696253
2,1, 8,21, 0,19,15.00,30.00,SummerDesignDay
9,45918551.2121025
1344,0.0
1375,129969904.163926
2,1, 8,21, 0,19,30.00,45.00,SummerDesignDay
9,45918551.2121025
1344,0.0
1375,126308995.884672
2,1, 8,21, 0,19,45.00,60.00,SummerDesignDay
9,45918551.2121025
1344,0.0
1375,122441694.439592
2,1, 8,21, 0,20, 0.00,15.00,SummerDesignDay
9,45918551.2121025
1344,0.0
1375,119428166.995693
2,1, 8,21, 0,20,15.00,30.00,SummerDesignDay
9,45918551.2121025
1344,0.0
1375,116900969.284597
2,1, 8,21, 0,20,30.00,45.00,SummerDesignDay
9,45918551.2121025
1344,0.0
1375,114567297.722186
2,1, 8,21, 0,20,45.00,60.00,SummerDesignDay
9,45918551.2121025
1344,0.0
1375,112310656.683239
2,1, 8,21, 0,21, 0.00,15.00,SummerDesignDay
9,45918551.2121025
1344,0.0
1375,110421502.748622
2,1, 8,21, 0,21,15.00,30.00,SummerDesignDay
9,45918551.2121025
1344,0.0
1375,108589905.750997
2,1, 8,21, 0,21,30.00,45.00,SummerDesignDay
9,45918551.2121025
1344,0.0
1375,106932130.128876
2,1, 8,21, 0,21,45.00,60.00,SummerDesignDay
9,45918551.2121025
1344,0.0
1375,105166341.484832
2,1, 8,21, 0,22, 0.00,15.00,SummerDesignDay
9,45918551.2121025
1344,0.0
1375,103544813.219598
2,1, 8,21, 0,22,15.00,30.00,SummerDesignDay
9,45918551.2121025
1344,0.0
1375,101840520.66356
2,1, 8,21, 0,22,30.00,45.00,SummerDesignDay
9,45918551.2121025
1344,0.0
1375,100087473.402151
2,1, 8,21, 0,22,45.00,60.00,SummerDesignDay
9,45918551.2121025
1344,0.0
1375,98322602.9000905
2,1, 8,21, 0,23, 0.00,15.00,SummerDesignDay
9,45918551.2121025
1344,0.0
1375,24495305.1155761
2,1, 8,21, 0,23,15.00,30.00,SummerDesignDay
9,45918551.2121025
1344,0.0
1375,32088842.7377922
2,1, 8,21, 0,23,30.00,45.00,SummerDesignDay
9,45918551.2121025
1344,0.0
1375,35916088.9852823
2,1, 8,21, 0,23,45.00,60.00,SummerDesignDay
9,45918551.2121025
1344,0.0
1375,36010300.8839981
2,1, 8,21, 0,24, 0.00,15.00,SummerDesignDay
9,45918551.2121025
1344,0.0
1375,35643281.0145624
2,1, 8,21, 0,24,15.00,30.00,SummerDesignDay
9,45918551.2121025
1344,0.0
1375,35260798.7731447
2,1, 8,21, 0,24,30.00,45.00,SummerDesignDay
9,45918551.2121025
1344,0.0
1375,34009307.8699688
2,1, 8,21, 0,24,45.00,60.00,SummerDesignDay
9,45918551.2121025
1344,0.0
1375,33394519.9588343
1,PIACENZA ANN CLG .4% CONDNS DP=>MDB,   1.37, 103.98,   8.00,  16.00
2,1, 8,21, 0, 1, 0.00,15.00,SummerDesignDay
9,45918551.2121025
1344,0.0
1375,19637410.520543
2,1, 8,21, 0, 1,15.00,30.00,SummerDesignDay
9,45918551.2121025
1344,0.0
1375,18653148.285505
2,1, 8,21, 0, 1,30.00,45.00,SummerDesignDay
9,45918551.2121025
1344,0.0
1375,17739684.1021993
2,1, 8,21, 0, 1,45.00,60.00,SummerDesignDay
9,45918551.2121025
1344,0.0
1375,16992415.2987833
2,1, 8,21, 0, 2, 0.00,15.00,SummerDesignDay
9,45918551.2121025
1344,0.0
1375,16469463.4440566
2,1, 8,21, 0, 2,15.00,30.00,SummerDesignDay
9,45918551.2121025
1344,0.0
1375,16019621.9593129
2,1, 8,21, 0, 2,30.00,45.00,SummerDesignDay
9,45918551.2121025
1344,0.0
1375,15592543.3370122
2,1, 8,21, 0, 2,45.00,60.00,SummerDesignDay
9,45918551.2121025
1344,0.0
1375,15168199.7749309
2,1, 8,21, 0, 3, 0.00,15.00,SummerDesignDay
9,45918551.2121025
1344,0.0
1375,14789143.7290144
2,1, 8,21, 0, 3,15.00,30.00,SummerDesignDay
9,45918551.2121025
1344,0.0
1375,14415800.8506374
2,1, 8,21, 0, 3,30.00,45.00,SummerDesignDay
9,45918551.2121025
1344,0.0
1375,14046097.7256591
2,1, 8,21, 0, 3,45.00,60.00,SummerDesignDay
9,45918551.2121025
1344,0.0
1375,13678602.2409129
2,1, 8,21, 0, 4, 0.00,15.00,SummerDesignDay
9,45918551.2121025
1344,0.0
1375,13312281.7304124
2,1, 8,21, 0, 4,15.00,30.00,SummerDesignDay
9,45918551.2121025
1344,0.0
1375,12946568.3921918
2,1, 8,21, 0, 4,30.00,45.00,SummerDesignDay
9,45918551.2121025
1344,0.0
1375,12573139.2628152
2,1, 8,21, 0, 4,45.00,60.00,SummerDesignDay
9,45918551.2121025
1344,0.0
1375,12195260.3976786
2,1, 8,21, 0, 5, 0.00,15.00,SummerDesignDay
9,45918551.2121025
1344,0.0
1375,11867610.1918457
2,1, 8,21, 0, 5,15.00,30.00,SummerDesignDay
9,45918551.2121025
1344,0.0
1375,11549056.1337984
2,1, 8,21, 0, 5,30.00,45.00,SummerDesignDay
9,45918551.2121025
1344,0.0
1375,11237295.5823648
2,1, 8,21, 0, 5,45.00,60.00,SummerDesignDay
9,45918551.2121025
1344,0.0
1375,11010238.5228161
2,1, 8,21, 0, 6, 0.00,15.00,SummerDesignDay
9,45918551.2121025
1344,0.0
1375,10953230.3030826
2,1, 8,21, 0, 6,15.00,30.00,SummerDesignDay
9,45918551.2121025
1344,0.0
1375,10916947.9042252
2,1, 8,21, 0, 6,30.00,45.00,SummerDesignDay
9,45918551.2121025
1344,0.0
1375,10893345.9829734
2,1, 8,21, 0, 6,45.00,60.00,SummerDesignDay
9,45918551.2121025
1344,0.0
1375,10878941.0938865
2,1, 8,21, 0, 7, 0.00,15.00,SummerDesignDay
9,45918551.2121025
1344,0.0
1375,61554835.7958338
2,1, 8,21, 0, 7,15.00,30.00,SummerDesignDay
9,45918551.2121025
1344,0.0
1375,34928761.4924681
2,1, 8,21, 0, 7,30.00,45.00,SummerDesignDay
9,45918551.2121025
1344,0.0
1375,46438424.0790071
2,1, 8,21, 0, 7,45.00,60.00,SummerDesignDay
9,45918551.2121025
1344,0.0
1375,38403498.5508227
2,1, 8,21, 0, 8, 0.00,15.00,SummerDesignDay
9,45918551.2121025
1344,0.0
1375,42415045.1526273
2,1, 8,21, 0, 8,15.00,30.00,SummerDesignDay
9,45918551.2121025
1344,0.0
1375,46494986.3039836
2,1, 8,21, 0, 8,30.00,45.00,SummerDesignDay
9,45918551.2121025
1344,0.0
1375,50563069.7290639
2,1, 8,21, 0, 8,45.00,60.00,SummerDesignDay
9,45918551.2121025
1344,0.0
1375,54737723.4891844
2,1, 8,21, 0, 9, 0.00,15.00,SummerDesignDay
9,45918551.2121025
1344,0.0
1375,59085908.926241
2,1, 8,21, 0, 9,15.00,30.00,SummerDesignDay
9,45918551.2121025
1344,0.0
1375,63272779.8904692
2,1, 8,21, 0, 9,30.00,45.00,SummerDesignDay
9,45918551.2121025
1344,0.0
1375,67743678.1053245
2,1, 8,21, 0, 9,45.00,60.00,SummerDesignDay
9,45918551.2121025
1344,0.0
1375,72508930.9994772
2,1, 8,21, 0,10, 0.00,15.00,SummerDesignDay
9,45918551.2121025
1344,0.0
1375,76906773.7064598
2,1, 8,21, 0,10,15.00,30.00,SummerDesignDay
9,45918551.2121025
1344,0.0
1375,81225096.8002244
2,1, 8,21, 0,10,30.00,45.00,SummerDesignDay
9,45918551.2121025
1344,0.0
1375,86261759.4292291
2,1, 8,21, 0,10,45.00,60.00,SummerDesignDay
9,45918551.2121025
1344,0.0
1375,91821625.6106358
2,1, 8,21, 0,11, 0.00,15.00,SummerDesignDay
9,45918551.2121025
1344,0.0
1375,96241431.6305778
2,1, 8,21, 0,11,15.00,30.00,SummerDesignDay
9,45918551.2121025
1344,0.0
1375,100424471.916758
2,1, 8,21, 0,11,30.00,45.00,SummerDesignDay
9,45918551.2121025
1344,0.0
1375,104169339.235303
2,1, 8,21, 0,11,45.00,60.00,SummerDesignDay
9,45918551.2121025
1344,0.0
1375,107175877.754998
2,1, 8,21, 0,12, 0.00,15.00,SummerDesignDay
9,45918551.2121025
1344,0.0
1375,108877135.932707
2,1, 8,21, 0,12,15.00,30.00,SummerDesignDay
9,45918551.2121025
1344,0.0
1375,110744786.066148
2,1, 8,21, 0,12,30.00,45.00,SummerDesignDay
9,45918551.2121025
1344,0.0
1375,112822661.003449
2,1, 8,21, 0,12,45.00,60.00,SummerDesignDay
9,45918551.2121025
1344,0.0
1375,114929854.058345
2,1, 8,21, 0,13, 0.00,15.00,SummerDesignDay
9,45918551.2121025
1344,0.0
1375,116565494.606399
2,1, 8,21, 0,13,15.00,30.00,SummerDesignDay
9,45918551.2121025
1344,0.0
1375,118205492.667708
2,1, 8,21, 0,13,30.00,45.00,SummerDesignDay
9,45918551.2121025
1344,0.0
1375,119885071.37999
2,1, 8,21, 0,13,45.00,60.00,SummerDesignDay
9,45918551.2121025
1344,0.0
1375,121578371.434761
2,1, 8,21, 0,14, 0.00,15.00,SummerDesignDay
9,45918551.2121025
1344,0.0
1375,122642393.591208
2,1, 8,21, 0,14,15.00,30.00,SummerDesignDay
9,45918551.2121025
1344,0.0
1375,123789738.171985
2,1, 8,21, 0,14,30.00,45.00,SummerDesignDay
9,45918551.2121025
1344,0.0
1375,125007268.609053
2,1, 8,21, 0,14,45.00,60.00,SummerDesignDay
9,45918551.2121025
1344,0.0
1375,126247304.421694
2,1, 8,21, 0,15, 0.00,15.00,SummerDesignDay
9,45918551.2121025
1344,0.0
1375,126458197.803448
2,1, 8,21, 0,15,15.00,30.00,SummerDesignDay
9,45918551.2121025
1344,0.0
1375,126737555.637495
2,1, 8,21, 0,15,30.00,45.00,SummerDesignDay
9,45918551.2121025
1344,0.0
1375,127110577.089234
2,1, 8,21, 0,15,45.00,60.00,SummerDesignDay
9,45918551.2121025
1344,0.0
1375,127627834.985765
2,1, 8,21, 0,16, 0.00,15.00,SummerDesignDay
9,45918551.2121025
1344,0.0
1375,127151331.86729
2,1, 8,21, 0,16,15.00,30.00,SummerDesignDay
9,45918551.2121025
1344,0.0
1375,126870193.366407
2,1, 8,21, 0,16,30.00,45.00,SummerDesignDay
9,45918551.2121025
1344,0.0
1375,126688426.152768
2,1, 8,21, 0,16,45.00,60.00,SummerDesignDay
9,45918551.2121025
1344,0.0
1375,126504978.149088
2,1, 8,21, 0,17, 0.00,15.00,SummerDesignDay
9,45918551.2121025
1344,0.0
1375,125853531.251526
2,1, 8,21, 0,17,15.00,30.00,SummerDesignDay
9,45918551.2121025
1344,0.0
1375,125183596.965842
2,1, 8,21, 0,17,30.00,45.00,SummerDesignDay
9,45918551.2121025
1344,0.0
1375,124341787.866782
2,1, 8,21, 0,17,45.00,60.00,SummerDesignDay
9,45918551.2121025
1344,0.0
1375,123583924.729992
2,1, 8,21, 0,18, 0.00,15.00,SummerDesignDay
9,45918551.2121025
1344,0.0
1375,122225355.965643
2,1, 8,21, 0,18,15.00,30.00,SummerDesignDay
9,45918551.2121025
1344,0.0
1375,120600333.522848
2,1, 8,21, 0,18,30.00,45.00,SummerDesignDay
9,45918551.2121025
1344,0.0
1375,118654307.801847
2,1, 8,21, 0,18,45.00,60.00,SummerDesignDay
9,45918551.2121025
1344,0.0
1375,116724108.632042
2,1, 8,21, 0,19, 0.00,15.00,SummerDesignDay
9,45918551.2121025
1344,0.0
1375,113412201.962494
2,1, 8,21, 0,19,15.00,30.00,SummerDesignDay
9,45918551.2121025
1344,0.0
1375,109771034.677424
2,1, 8,21, 0,19,30.00,45.00,SummerDesignDay
9,45918551.2121025
1344,0.0
1375,105550662.529882
2,1, 8,21, 0,19,45.00,60.00,SummerDesignDay
9,45918551.2121025
1344,0.0
1375,100852295.122448
2,1, 8,21, 0,20, 0.00,15.00,SummerDesignDay
9,45918551.2121025
1344,0.0
1375,97262472.0139443
2,1, 8,21, 0,20,15.00,30.00,SummerDesignDay
9,45918551.2121025
1344,0.0
1375,93808156.1825873
2,1, 8,21, 0,20,30.00,45.00,SummerDesignDay
9,45918551.2121025
1344,0.0
1375,90319255.1096841
2,1, 8,21, 0,20,45.00,60.00,SummerDesignDay
9,45918551.2121025
1344,0.0
1375,86822949.839683
2,1, 8,21, 0,21, 0.00,15.00,SummerDesignDay
9,45918551.2121025
1344,0.0
1375,83831556.2533809
2,1, 8,21, 0,21,15.00,30.00,SummerDesignDay
9,45918551.2121025
1344,0.0
1375,81081909.2100612
2,1, 8,21, 0,21,30.00,45.00,SummerDesignDay
9,45918551.2121025
1344,0.0
1375,78393662.6534601
2,1, 8,21, 0,21,45.00,60.00,SummerDesignDay
9,45918551.2121025
1344,0.0
1375,75850735.3937549
2,1, 8,21, 0,22, 0.00,15.00,SummerDesignDay
9,45918551.2121025
1344,0.0
1375,73441792.4430675
2,1, 8,21, 0,22,15.00,30.00,SummerDesignDay
9,45918551.2121025
1344,0.0
1375,71046924.4518483
2,1, 8,21, 0,22,30.00,45.00,SummerDesignDay
9,45918551.2121025
1344,0.0
1375,68666475.4648892
2,1, 8,21, 0,22,45.00,60.00,SummerDesignDay
9,45918551.2121025
1344,0.0
1375,66301179.6423851
2,1, 8,21, 0,23, 0.00,15.00,SummerDesignDay
9,45918551.2121025
1344,0.0
1375,13774628.3376731
2,1, 8,21, 0,23,15.00,30.00,SummerDesignDay
9,45918551.2121025
1344,0.0
1375,17672315.1427464
2,1, 8,21, 0,23,30.00,45.00,SummerDesignDay
9,45918551.2121025
1344,0.0
1375,19317444.3106964
2,1, 8,21, 0,23,45.00,60.00,SummerDesignDay
9,45918551.2121025
1344,0.0
1375,21849257.4261195
2,1, 8,21, 0,24, 0.00,15.00,SummerDesignDay
9,45918551.2121025
1344,0.0
1375,22436241.2575189
2,1, 8,21, 0,24,15.00,30.00,SummerDesignDay
9,45918551.2121025
1344,0.0
1375,21672978.1170558
2,1, 8,21, 0,24,30.00,45.00,SummerDesignDay
9,45918551.2121025
1344,0.0
1375,20814691.6220523
2,1, 8,21, 0,24,45.00,60.00,SummerDesignDay
9,45918551.2121025
1344,0.0
1375,19854725.7549886
1,PIACENZA ANN CLG .4% CONDNS ENTH=>MDB,   1.37, 103.98,   8.00,  16.00
2,1, 8,21, 0, 1, 0.00,15.00,SummerDesignDay
9,45918551.2121025
1344,0.0
1375,29049005.6741917
2,1, 8,21, 0, 1,15.00,30.00,SummerDesignDay
9,45918551.2121025
1344,0.0
1375,27889833.1960516
2,1, 8,21, 0, 1,30.00,45.00,SummerDesignDay
9,45918551.2121025
1344,0.0
1375,26764493.319634
2,1, 8,21, 0, 1,45.00,60.00,SummerDesignDay
9,45918551.2121025
1344,0.0
1375,25919535.8343674
2,1, 8,21, 0, 2, 0.00,15.00,SummerDesignDay
9,45918551.2121025
1344,0.0
1375,25379237.8715306
2,1, 8,21, 0, 2,15.00,30.00,SummerDesignDay
9,45918551.2121025
1344,0.0
1375,24942290.9380313
2,1, 8,21, 0, 2,30.00,45.00,SummerDesignDay
9,45918551.2121025
1344,0.0
1375,24534526.399457
2,1, 8,21, 0, 2,45.00,60.00,SummerDesignDay
9,45918551.2121025
1344,0.0
1375,24128616.7706777
2,1, 8,21, 0, 3, 0.00,15.00,SummerDesignDay
9,45918551.2121025
1344,0.0
1375,23765236.6723426
2,1, 8,21, 0, 3,15.00,30.00,SummerDesignDay
9,45918551.2121025
1344,0.0
1375,23409180.2255973
2,1, 8,21, 0, 3,30.00,45.00,SummerDesignDay
9,45918551.2121025
1344,0.0
1375,23062720.8399422
2,1, 8,21, 0, 3,45.00,60.00,SummerDesignDay
9,45918551.2121025
1344,0.0
1375,22710366.3373734
2,1, 8,21, 0, 4, 0.00,15.00,SummerDesignDay
9,45918551.2121025
1344,0.0
1375,22309147.4668986
2,1, 8,21, 0, 4,15.00,30.00,SummerDesignDay
9,45918551.2121025
1344,0.0
1375,21916935.7029476
2,1, 8,21, 0, 4,30.00,45.00,SummerDesignDay
9,45918551.2121025
1344,0.0
1375,21534602.8861638
2,1, 8,21, 0, 4,45.00,60.00,SummerDesignDay
9,45918551.2121025
1344,0.0
1375,21161144.6550862
2,1, 8,21, 0, 5, 0.00,15.00,SummerDesignDay
9,45918551.2121025
1344,0.0
1375,20840050.333158
2,1, 8,21, 0, 5,15.00,30.00,SummerDesignDay
9,45918551.2121025
1344,0.0
1375,20531028.2730403
2,1, 8,21, 0, 5,30.00,45.00,SummerDesignDay
9,45918551.2121025
1344,0.0
1375,20231067.9765463
2,1, 8,21, 0, 5,45.00,60.00,SummerDesignDay
9,45918551.2121025
1344,0.0
1375,19937865.249317
2,1, 8,21, 0, 6, 0.00,15.00,SummerDesignDay
9,45918551.2121025
1344,0.0
1375,19829332.1625227
2,1, 8,21, 0, 6,15.00,30.00,SummerDesignDay
9,45918551.2121025
1344,0.0
1375,19750970.0457131
2,1, 8,21, 0, 6,30.00,45.00,SummerDesignDay
9,45918551.2121025
1344,0.0
1375,19692896.8920739
2,1, 8,21, 0, 6,45.00,60.00,SummerDesignDay
9,45918551.2121025
1344,0.0
1375,19649528.8933232
2,1, 8,21, 0, 7, 0.00,15.00,SummerDesignDay
9,45918551.2121025
1344,0.0
1375,92516319.6705373
2,1, 8,21, 0, 7,15.00,30.00,SummerDesignDay
9,45918551.2121025
1344,0.0
1375,57039694.7793052
2,1, 8,21, 0, 7,30.00,45.00,SummerDesignDay
9,45918551.2121025
1344,0.0
1375,74209329.983723
2,1, 8,21, 0, 7,45.00,60.00,SummerDesignDay
9,45918551.2121025
1344,0.0
1375,62806076.5971065
2,1, 8,21, 0, 8, 0.00,15.00,SummerDesignDay
9,45918551.2121025
1344,0.0
1375,66591348.8235431
2,1, 8,21, 0, 8,15.00,30.00,SummerDesignDay
9,45918551.2121025
1344,0.0
1375,70859174.9670141
2,1, 8,21, 0, 8,30.00,45.00,SummerDesignDay
9,45918551.2121025
1344,0.0
1375,75381000.1245897
2,1, 8,21, 0, 8,45.00,60.00,SummerDesignDay
9,45918551.2121025
1344,0.0
1375,79962140.9861661
2,1, 8,21, 0, 9, 0.00,15.00,SummerDesignDay
9,45918551.2121025
1344,0.0
1375,85456116.8142214
2,1, 8,21, 0, 9,15.00,30.00,SummerDesignDay
9,45918551.2121025
1344,0.0
1375,91224929.433174
2,1, 8,21, 0, 9,30.00,45.00,SummerDesignDay
9,45918551.2121025
1344,0.0
1375,97783122.8439063
2,1, 8,21, 0, 9,45.00,60.00,SummerDesignDay
9,45918551.2121025
1344,0.0
1375,104668466.374343
2,1, 8,21, 0,10, 0.00,15.00,SummerDesignDay
9,45918551.2121025
1344,0.0
1375,111264380.110542
2,1, 8,21, 0,10,15.00,30.00,SummerDesignDay
9,45918551.2121025
1344,0.0
1375,117181143.848369
2,1, 8,21, 0,10,30.00,45.00,SummerDesignDay
9,45918551.2121025
1344,0.0
1375,123674435.93362
2,1, 8,21, 0,10,45.00,60.00,SummerDesignDay
9,45918551.2121025
1344,0.0
1375,130044626.921627
2,1, 8,21, 0,11, 0.00,15.00,SummerDesignDay
9,45918551.2121025
1344,0.0
1375,135869144.003381
2,1, 8,21, 0,11,15.00,30.00,SummerDesignDay
9,45918551.2121025
1344,0.0
1375,141587384.716154
2,1, 8,21, 0,11,30.00,45.00,SummerDesignDay
9,45918551.2121025
1344,0.0
1375,147277685.361519
2,1, 8,21, 0,11,45.00,60.00,SummerDesignDay
9,45918551.2121025
1344,0.0
1375,152902700.253883
2,1, 8,21, 0,12, 0.00,15.00,SummerDesignDay
9,45918551.2121025
1344,0.0
1375,157252265.512052
2,1, 8,21, 0,12,15.00,30.00,SummerDesignDay
9,45918551.2121025
1344,0.0
1375,161561442.956926
2,1, 8,21, 0,12,30.00,45.00,SummerDesignDay
9,45918551.2121025
1344,0.0
1375,165948407.976901
2,1, 8,21, 0,12,45.00,60.00,SummerDesignDay
9,45918551.2121025
1344,0.0
1375,170356812.674567
2,1, 8,21, 0,13, 0.00,15.00,SummerDesignDay
9,45918551.2121025
1344,0.0
1375,174245039.662909
2,1, 8,21, 0,13,15.00,30.00,SummerDesignDay
9,45918551.2121025
1344,0.0
1375,178019498.267637
2,1, 8,21, 0,13,30.00,45.00,SummerDesignDay
9,45918551.2121025
1344,0.0
1375,181731720.036924
2,1, 8,21, 0,13,45.00,60.00,SummerDesignDay
9,45918551.2121025
1344,0.0
1375,185419047.619773
2,1, 8,21, 0,14, 0.00,15.00,SummerDesignDay
9,45918551.2121025
1344,0.0
1375,188327717.611395
2,1, 8,21, 0,14,15.00,30.00,SummerDesignDay
9,45918551.2121025
1344,0.0
1375,191038709.634128
2,1, 8,21, 0,14,30.00,45.00,SummerDesignDay
9,45918551.2121025
1344,0.0
1375,193638395.517195
2,1, 8,21, 0,14,45.00,60.00,SummerDesignDay
9,45918551.2121025
1344,0.0
1375,196209114.578828
2,1, 8,21, 0,15, 0.00,15.00,SummerDesignDay
9,45918551.2121025
1344,0.0
1375,197388147.336172
2,1, 8,21, 0,15,15.00,30.00,SummerDesignDay
9,45918551.2121025
1344,0.0
1375,198197787.913829
2,1, 8,21, 0,15,30.00,45.00,SummerDesignDay
9,45918551.2121025
1344,0.0
1375,198747746.508643
2,1, 8,21, 0,15,45.00,60.00,SummerDesignDay
9,45918551.2121025
1344,0.0
1375,199384530.675229
2,1, 8,21, 0,16, 0.00,15.00,SummerDesignDay
9,45918551.2121025
1344,0.0
1375,198695713.041322
2,1, 8,21, 0,16,15.00,30.00,SummerDesignDay
9,45918551.2121025
1344,0.0
1375,197608989.900871
2,1, 8,21, 0,16,30.00,45.00,SummerDesignDay
9,45918551.2121025
1344,0.0
1375,196197657.938345
2,1, 8,21, 0,16,45.00,60.00,SummerDesignDay
9,45918551.2121025
1344,0.0
1375,194653237.972452
2,1, 8,21, 0,17, 0.00,15.00,SummerDesignDay
9,45918551.2121025
1344,0.0
1375,192466810.702694
2,1, 8,21, 0,17,15.00,30.00,SummerDesignDay
9,45918551.2121025
1344,0.0
1375,190037496.376008
2,1, 8,21, 0,17,30.00,45.00,SummerDesignDay
9,45918551.2121025
1344,0.0
1375,187275670.647831
2,1, 8,21, 0,17,45.00,60.00,SummerDesignDay
9,45918551.2121025
1344,0.0
1375,184610441.0707
2,1, 8,21, 0,18, 0.00,15.00,SummerDesignDay
9,45918551.2121025
1344,0.0
1375,181230848.371488
2,1, 8,21, 0,18,15.00,30.00,SummerDesignDay
9,45918551.2121025
1344,0.0
1375,177382938.614789
2,1, 8,21, 0,18,30.00,45.00,SummerDesignDay
9,45918551.2121025
1344,0.0
1375,173111108.433592
2,1, 8,21, 0,18,45.00,60.00,SummerDesignDay
9,45918551.2121025
1344,0.0
1375,168934332.775042
2,1, 8,21, 0,19, 0.00,15.00,SummerDesignDay
9,45918551.2121025
1344,0.0
1375,163151421.191043
2,1, 8,21, 0,19,15.00,30.00,SummerDesignDay
9,45918551.2121025
1344,0.0
1375,156679620.830512
2,1, 8,21, 0,19,30.00,45.00,SummerDesignDay
9,45918551.2121025
1344,0.0
1375,149494557.987418
2,1, 8,21, 0,19,45.00,60.00,SummerDesignDay
9,45918551.2121025
1344,0.0
1375,141953384.819453
2,1, 8,21, 0,20, 0.00,15.00,SummerDesignDay
9,45918551.2121025
1344,0.0
1375,136025513.277277
2,1, 8,21, 0,20,15.00,30.00,SummerDesignDay
9,45918551.2121025
1344,0.0
1375,131200250.843696
2,1, 8,21, 0,20,30.00,45.00,SummerDesignDay
9,45918551.2121025
1344,0.0
1375,126807641.516371
2,1, 8,21, 0,20,45.00,60.00,SummerDesignDay
9,45918551.2121025
1344,0.0
1375,122549292.551418
2,1, 8,21, 0,21, 0.00,15.00,SummerDesignDay
9,45918551.2121025
1344,0.0
1375,118808584.800524
2,1, 8,21, 0,21,15.00,30.00,SummerDesignDay
9,45918551.2121025
1344,0.0
1375,115203288.833582
2,1, 8,21, 0,21,30.00,45.00,SummerDesignDay
9,45918551.2121025
1344,0.0
1375,111696443.67756
2,1, 8,21, 0,21,45.00,60.00,SummerDesignDay
9,45918551.2121025
1344,0.0
1375,108242096.177133
2,1, 8,21, 0,22, 0.00,15.00,SummerDesignDay
9,45918551.2121025
1344,0.0
1375,104816549.063811
2,1, 8,21, 0,22,15.00,30.00,SummerDesignDay
9,45918551.2121025
1344,0.0
1375,101647101.826526
2,1, 8,21, 0,22,30.00,45.00,SummerDesignDay
9,45918551.2121025
1344,0.0
1375,98538035.407952
2,1, 8,21, 0,22,45.00,60.00,SummerDesignDay
9,45918551.2121025
1344,0.0
1375,95451171.778532
2,1, 8,21, 0,23, 0.00,15.00,SummerDesignDay
9,45918551.2121025
1344,0.0
1375,21682334.0741917
2,1, 8,21, 0,23,15.00,30.00,SummerDesignDay
9,45918551.2121025
1344,0.0
1375,27296559.0911572
2,1, 8,21, 0,23,30.00,45.00,SummerDesignDay
9,45918551.2121025
1344,0.0
1375,30042022.3280399
2,1, 8,21, 0,23,45.00,60.00,SummerDesignDay
9,45918551.2121025
1344,0.0
1375,31061312.2914031
2,1, 8,21, 0,24, 0.00,15.00,SummerDesignDay
9,45918551.2121025
1344,0.0
1375,31545508.5712693
2,1, 8,21, 0,24,15.00,30.00,SummerDesignDay
9,45918551.2121025
1344,0.0
1375,31047692.4784424
2,1, 8,21, 0,24,30.00,45.00,SummerDesignDay
9,45918551.2121025
1344,0.0
1375,30308694.0036234
2,1, 8,21, 0,24,45.00,60.00,SummerDesignDay
9,45918551.2121025
1344,0.0
1375,29579384.1843237
1,PIACENZA ANN CLG .4% CONDNS WB=>MDB,   1.37, 103.98,   8.00,  16.00
2,1, 8,21, 0, 1, 0.00,15.00,SummerDesignDay
9,45918551.2121025
1344,0.0
1375,28317714.8269431
2,1, 8,21, 0, 1,15.00,30.00,SummerDesignDay
9,45918551.2121025
1344,0.0
1375,27158611.4513845
2,1, 8,21, 0, 1,30.00,45.00,SummerDesignDay
9,45918551.2121025
1344,0.0
1375,26056323.8475137
2,1, 8,21, 0, 1,45.00,60.00,SummerDesignDay
9,45918551.2121025
1344,0.0
1375,25224267.2697422
2,1, 8,21, 0, 2, 0.00,15.00,SummerDesignDay
9,45918551.2121025
1344,0.0
1375,24684905.4543205
2,1, 8,21, 0, 2,15.00,30.00,SummerDesignDay
9,45918551.2121025
1344,0.0
1375,24247705.5929695
2,1, 8,21, 0, 2,30.00,45.00,SummerDesignDay
9,45918551.2121025
1344,0.0
1375,23839017.636648
2,1, 8,21, 0, 2,45.00,60.00,SummerDesignDay
9,45918551.2121025
1344,0.0
1375,23431249.2441804