Program Version,EnergyPlus, Version 8.5.0-c87e61b44b, YMD=2018.01.18 15:50
1,5,Environment Title[],Latitude[deg],Longitude[deg],Time Zone[],Elevation[m]
2,6,Day of Simulation[],Month[],Day of Month[],DST Indicator[1=yes 0=no],Hour[],StartMinute[],EndMinute[],DayType
3,3,Cumulative Day of Simulation[],Month[],Day of Month[],DST Indicator[1=yes 0=no],DayType  ! When Daily Meters Requested
4,2,Cumulative Days of Simulation[],Month[]  ! When Monthly Meters Requested
5,1,Cumulative Days of Simulation[] ! When Run Period Meters Requested
9,1,Electricity:Facility [J] !TimeStep
869,1,DistrictCooling:Facility [J] !TimeStep
838,1,DistrictHeating:Facility [J] !TimeStep
End of Data Dictionary
1,ROME ANN CLG .4% CONDNS DB=>MWB,  41.80,  12.23,   1.00,   3.00
2,1, 8,21, 0, 1, 0.00,15.00,SummerDesignDay
9,13700250.
838,0.0
869,6106118.83997775
2,1, 8,21, 0, 1,15.00,30.00,SummerDesignDay
9,13700250.
838,0.0
869,5896858.11868013
2,1, 8,21, 0, 1,30.00,45.00,SummerDesignDay
9,13700250.
838,0.0
869,5672522.81636423
2,1, 8,21, 0, 1,45.00,60.00,SummerDesignDay
9,13700250.
838,0.0
869,5461727.63505891
2,1, 8,21, 0, 2, 0.00,15.00,SummerDesignDay
9,13700250.
838,0.0
869,5314157.44860215
2,1, 8,21, 0, 2,15.00,30.00,SummerDesignDay
9,13700250.
838,0.0
869,5194396.89443235
2,1, 8,21, 0, 2,30.00,45.00,SummerDesignDay
9,13700250.
838,0.0
869,5073768.2113182
2,1, 8,21, 0, 2,45.00,60.00,SummerDesignDay
9,13700250.
838,0.0
869,4952251.81483835
2,1, 8,21, 0, 3, 0.00,15.00,SummerDesignDay
9,13700250.
838,0.0
869,4843225.04856508
2,1, 8,21, 0, 3,15.00,30.00,SummerDesignDay
9,13700250.
838,0.0
869,4734567.07679102
2,1, 8,21, 0, 3,30.00,45.00,SummerDesignDay
9,13700250.
838,0.0
869,4625938.28397154
2,1, 8,21, 0, 3,45.00,60.00,SummerDesignDay
9,13700250.
838,0.0
869,4517308.42684273
2,1, 8,21, 0, 4, 0.00,15.00,SummerDesignDay
9,13700250.
838,0.0
869,4408704.8387005
2,1, 8,21, 0, 4,15.00,30.00,SummerDesignDay
9,13700250.
838,0.0
869,4300177.79218939
2,1, 8,21, 0, 4,30.00,45.00,SummerDesignDay
9,13700250.
838,0.0
869,4191786.3293361
2,1, 8,21, 0, 4,45.00,60.00,SummerDesignDay
9,13700250.
838,0.0
869,4094791.51883183
2,1, 8,21, 0, 5, 0.00,15.00,SummerDesignDay
9,13700250.
838,0.0
869,4010559.10122131
2,1, 8,21, 0, 5,15.00,30.00,SummerDesignDay
9,13700250.
838,0.0
869,3926262.57559898
2,1, 8,21, 0, 5,30.00,45.00,SummerDesignDay
9,13700250.
838,0.0
869,3842104.15000022
2,1, 8,21, 0, 5,45.00,60.00,SummerDesignDay
9,13700250.
838,0.0
869,3757706.67909583
2,1, 8,21, 0, 6, 0.00,15.00,SummerDesignDay
9,13700250.
838,0.0
869,3731863.32525412
2,1, 8,21, 0, 6,15.00,30.00,SummerDesignDay
9,13700250.
838,0.0
869,3732863.99569655
2,1, 8,21, 0, 6,30.00,45.00,SummerDesignDay
9,13700250.
838,0.0
869,3778573.22538376
2,1, 8,21, 0, 6,45.00,60.00,SummerDesignDay
9,13700250.
838,0.0
869,3855198.96045126
2,1, 8,21, 0, 7, 0.00,15.00,SummerDesignDay
9,13700250.
838,0.0
869,44424367.901256
2,1, 8,21, 0, 7,15.00,30.00,SummerDesignDay
9,13700250.
838,0.0
869,18067652.4135945
2,1, 8,21, 0, 7,30.00,45.00,SummerDesignDay
9,13700250.
838,0.0
869,39524835.0403723
2,1, 8,21, 0, 7,45.00,60.00,SummerDesignDay
9,13700250.
838,0.0
869,34463866.7065273
2,1, 8,21, 0, 8, 0.00,15.00,SummerDesignDay
9,13700250.
838,0.0
869,35642459.9651517
2,1, 8,21, 0, 8,15.00,30.00,SummerDesignDay
9,13700250.
838,0.0
869,37112657.4871519
2,1, 8,21, 0, 8,30.00,45.00,SummerDesignDay
9,13700250.
838,0.0
869,38840057.7604011
2,1, 8,21, 0, 8,45.00,60.00,SummerDesignDay
9,13700250.
838,0.0
869,40526295.3413666
2,1, 8,21, 0, 9, 0.00,15.00,SummerDesignDay
9,13700250.
838,0.0
869,42353180.7412828
2,1, 8,21, 0, 9,15.00,30.00,SummerDesignDay
9,13700250.
838,0.0
869,44143825.6108879
2,1, 8,21, 0, 9,30.00,45.00,SummerDesignDay
9,13700250.
838,0.0
869,45932993.6308293
2,1, 8,21, 0, 9,45.00,60.00,SummerDesignDay
9,13700250.
838,0.0
869,47752330.2297324
2,1, 8,21, 0,10, 0.00,15.00,SummerDesignDay
9,13700250.
838,0.0
869,49382774.8881014
2,1, 8,21, 0,10,15.00,30.00,SummerDesignDay
9,13700250.
838,0.0
869,51060151.0517193
2,1, 8,21, 0,10,30.00,45.00,SummerDesignDay
9,13700250.
838,0.0
869,52759134.836267
2,1, 8,21, 0,10,45.00,60.00,SummerDesignDay
9,13700250.
838,0.0
869,54452506.5447252
2,1, 8,21, 0,11, 0.00,15.00,SummerDesignDay
9,13700250.
838,0.0
869,55933241.3209621
2,1, 8,21, 0,11,15.00,30.00,SummerDesignDay
9,13700250.
838,0.0
869,57449046.2302613
2,1, 8,21, 0,11,30.00,45.00,SummerDesignDay
9,13700250.
838,0.0
869,58977909.9661376
2,1, 8,21, 0,11,45.00,60.00,SummerDesignDay
9,13700250.
838,0.0
869,60514027.2564078
2,1, 8,21, 0,12, 0.00,15.00,SummerDesignDay
9,13700250.
838,0.0
869,61552197.2614778
2,1, 8,21, 0,12,15.00,30.00,SummerDesignDay
9,13700250.
838,0.0
869,62631986.5279849
2,1, 8,21, 0,12,30.00,45.00,SummerDesignDay
9,13700250.
838,0.0
869,63731139.7989352
2,1, 8,21, 0,12,45.00,60.00,SummerDesignDay
9,13700250.
838,0.0
869,64814573.5631491
2,1, 8,21, 0,13, 0.00,15.00,SummerDesignDay
9,13700250.
838,0.0
869,65664515.236836
2,1, 8,21, 0,13,15.00,30.00,SummerDesignDay
9,13700250.
838,0.0
869,66395682.0822747
2,1, 8,21, 0,13,30.00,45.00,SummerDesignDay
9,13700250.
838,0.0
869,67158905.4659071
2,1, 8,21, 0,13,45.00,60.00,SummerDesignDay
9,13700250.
838,0.0
869,67941625.8117718
2,1, 8,21, 0,14, 0.00,15.00,SummerDesignDay
9,13700250.
838,0.0
869,68468586.6422274
2,1, 8,21, 0,14,15.00,30.00,SummerDesignDay
9,13700250.
838,0.0
869,69016045.8063501
2,1, 8,21, 0,14,30.00,45.00,SummerDesignDay
9,13700250.
838,0.0
869,69552869.3171455
2,1, 8,21, 0,14,45.00,60.00,SummerDesignDay
9,13700250.
838,0.0
869,70068396.9773338
2,1, 8,21, 0,15, 0.00,15.00,SummerDesignDay
9,13700250.
838,0.0
869,70071618.6392629
2,1, 8,21, 0,15,15.00,30.00,SummerDesignDay
9,13700250.
838,0.0
869,70096114.220469
2,1, 8,21, 0,15,30.00,45.00,SummerDesignDay
9,13700250.
838,0.0
869,70122172.0799987
2,1, 8,21, 0,15,45.00,60.00,SummerDesignDay
9,13700250.
838,0.0
869,70114263.107168
2,1, 8,21, 0,16, 0.00,15.00,SummerDesignDay
9,13700250.
838,0.0
869,69507081.4651362
2,1, 8,21, 0,16,15.00,30.00,SummerDesignDay
9,13700250.
838,0.0
869,68936092.6867011
2,1, 8,21, 0,16,30.00,45.00,SummerDesignDay
9,13700250.
838,0.0
869,68383291.5222684
2,1, 8,21, 0,16,45.00,60.00,SummerDesignDay
9,13700250.
838,0.0
869,67844079.9667085
2,1, 8,21, 0,17, 0.00,15.00,SummerDesignDay
9,13700250.
838,0.0
869,67118528.4976735
2,1, 8,21, 0,17,15.00,30.00,SummerDesignDay
9,13700250.
838,0.0
869,66422045.5842734
2,1, 8,21, 0,17,30.00,45.00,SummerDesignDay
9,13700250.
838,0.0
869,65722954.03769
2,1, 8,21, 0,17,45.00,60.00,SummerDesignDay
9,13700250.
838,0.0
869,64971126.9402549
2,1, 8,21, 0,18, 0.00,15.00,SummerDesignDay
9,13700250.
838,0.0
869,64024688.1983084
2,1, 8,21, 0,18,15.00,30.00,SummerDesignDay
9,13700250.
838,0.0
869,63091979.3889453
2,1, 8,21, 0,18,30.00,45.00,SummerDesignDay
9,13700250.
838,0.0
869,62159662.1919492
2,1, 8,21, 0,18,45.00,60.00,SummerDesignDay
9,13700250.
838,0.0
869,61251384.832249
2,1, 8,21, 0,19, 0.00,15.00,SummerDesignDay
9,13700250.
838,0.0
869,59849709.0470018
2,1, 8,21, 0,19,15.00,30.00,SummerDesignDay
9,13700250.
838,0.0
869,58434822.9509568
2,1, 8,21, 0,19,30.00,45.00,SummerDesignDay
9,13700250.
838,0.0
869,56973235.4950333
2,1, 8,21, 0,19,45.00,60.00,SummerDesignDay
9,13700250.
838,0.0
869,55462328.9030957
2,1, 8,21, 0,20, 0.00,15.00,SummerDesignDay
9,13700250.
838,0.0
869,54429468.4937706
2,1, 8,21, 0,20,15.00,30.00,SummerDesignDay
9,13700250.
838,0.0
869,53394907.7183233
2,1, 8,21, 0,20,30.00,45.00,SummerDesignDay
9,13700250.
838,0.0
869,52337662.8913542
2,1, 8,21, 0,20,45.00,60.00,SummerDesignDay
9,13700250.
838,0.0
869,51273383.0599429
2,1, 8,21, 0,21, 0.00,15.00,SummerDesignDay
9,13700250.
838,0.0
869,50405302.7315611
2,1, 8,21, 0,21,15.00,30.00,SummerDesignDay
9,13700250.
838,0.0
869,49508544.7220041
2,1, 8,21, 0,21,30.00,45.00,SummerDesignDay
9,13700250.
838,0.0
869,48588230.0256259
2,1, 8,21, 0,21,45.00,60.00,SummerDesignDay
9,13700250.
838,0.0
869,47662745.0899617
2,1, 8,21, 0,22, 0.00,15.00,SummerDesignDay
9,13700250.
838,0.0
869,46777996.959443
2,1, 8,21, 0,22,15.00,30.00,SummerDesignDay
9,13700250.
838,0.0
869,45873021.9133882
2,1, 8,21, 0,22,30.00,45.00,SummerDesignDay
9,13700250.
838,0.0
869,44928963.9822872
2,1, 8,21, 0,22,45.00,60.00,SummerDesignDay
9,13700250.
838,0.0
869,43962159.6301572
2,1, 8,21, 0,23, 0.00,15.00,SummerDesignDay
9,13700250.
838,0.0
869,2453559.12529978
2,1, 8,21, 0,23,15.00,30.00,SummerDesignDay
9,13700250.
838,0.0
869,5129135.27632894
2,1, 8,21, 0,23,30.00,45.00,SummerDesignDay
9,13700250.
838,0.0
869,6141423.7734121
2,1, 8,21, 0,23,45.00,60.00,SummerDesignDay
9,13700250.
838,0.0
869,7066593.24107869
2,1, 8,21, 0,24, 0.00,15.00,SummerDesignDay
9,13700250.
838,0.0
869,6735907.46492288
2,1, 8,21, 0,24,15.00,30.00,SummerDesignDay
9,13700250.
838,0.0
869,6664058.72772783
2,1, 8,21, 0,24,30.00,45.00,SummerDesignDay
9,13700250.
838,0.0
869,6455171.8191939
2,1, 8,21, 0,24,45.00,60.00,SummerDesignDay
9,13700250.
838,0.0
869,6263924.62119148
1,ROME ANN CLG .4% CONDNS DP=>MDB,  41.80,  12.23,   1.00,   3.00
2,1, 8,21, 0, 1, 0.00,15.00,SummerDesignDay
9,13700250.
838,0.0
869,3019319.35526697
2,1, 8,21, 0, 1,15.00,30.00,SummerDesignDay
9,13700250.
838,0.0
869,2764140.96246361
2,1, 8,21, 0, 1,30.00,45.00,SummerDesignDay
9,13700250.
838,0.0
869,2505792.72424122
2,1, 8,21, 0, 1,45.00,60.00,SummerDesignDay
9,13700250.
838,0.0
869,2256957.26368472
2,1, 8,21, 0, 2, 0.00,15.00,SummerDesignDay
9,13700250.
838,0.0
869,2053700.7757439
2,1, 8,21, 0, 2,15.00,30.00,SummerDesignDay
9,13700250.
838,0.0
869,1863106.45166893
2,1, 8,21, 0, 2,30.00,45.00,SummerDesignDay
9,13700250.
838,0.0
869,1681040.17962029
2,1, 8,21, 0, 2,45.00,60.00,SummerDesignDay
9,13700250.
838,0.0
869,1504790.95507565
2,1, 8,21, 0, 3, 0.00,15.00,SummerDesignDay
9,13700250.
838,0.0
869,1348875.61369692
2,1, 8,21, 0, 3,15.00,30.00,SummerDesignDay
9,13700250.
838,0.0
869,1197289.00773682
2,1, 8,21, 0, 3,30.00,45.00,SummerDesignDay
9,13700250.
838,0.0
869,1048686.80733827
2,1, 8,21, 0, 3,45.00,60.00,SummerDesignDay
9,13700250.
838,0.0
869,902311.54859643
2,1, 8,21, 0, 4, 0.00,15.00,SummerDesignDay
9,13700250.
838,0.0
869,757623.912852831
2,1, 8,21, 0, 4,15.00,30.00,SummerDesignDay
9,13700250.
838,0.0
869,635722.833381122
2,1, 8,21, 0, 4,30.00,45.00,SummerDesignDay
9,13700250.
838,0.0
869,553692.547510089
2,1, 8,21, 0, 4,45.00,60.00,SummerDesignDay
9,13700250.
838,0.0
869,472679.507853148
2,1, 8,21, 0, 5, 0.00,15.00,SummerDesignDay
9,13700250.
838,0.0
869,400743.957129554
2,1, 8,21, 0, 5,15.00,30.00,SummerDesignDay
9,13700250.
838,0.0
869,330283.29654779
2,1, 8,21, 0, 5,30.00,45.00,SummerDesignDay
9,13700250.
838,0.0
869,260879.374729217
2,1, 8,21, 0, 5,45.00,60.00,SummerDesignDay
9,13700250.
838,0.0
869,192343.419998502
2,1, 8,21, 0, 6, 0.00,15.00,SummerDesignDay
9,13700250.
838,0.0
869,156804.565555471
2,1, 8,21, 0, 6,15.00,30.00,SummerDesignDay
9,13700250.
838,0.0
869,134637.287341867
2,1, 8,21, 0, 6,30.00,45.00,SummerDesignDay
9,13700250.
838,0.0
869,124802.834786227
2,1, 8,21, 0, 6,45.00,60.00,SummerDesignDay
9,13700250.
838,0.0
869,128739.464891692
2,1, 8,21, 0, 7, 0.00,15.00,SummerDesignDay
9,13700250.
838,0.0
869,23240872.861315
2,1, 8,21, 0, 7,15.00,30.00,SummerDesignDay
9,13700250.
838,0.0
869,1052804.79042393
2,1, 8,21, 0, 7,30.00,45.00,SummerDesignDay
9,13700250.
838,0.0
869,15104371.9609396
2,1, 8,21, 0, 7,45.00,60.00,SummerDesignDay
9,13700250.
838,0.0
869,14943875.3489038
2,1, 8,21, 0, 8, 0.00,15.00,SummerDesignDay
9,13700250.
838,0.0
869,15938122.1493065
2,1, 8,21, 0, 8,15.00,30.00,SummerDesignDay
9,13700250.
838,0.0
869,18780176.4477714
2,1, 8,21, 0, 8,30.00,45.00,SummerDesignDay
9,13700250.
838,0.0
869,21544936.8148126
2,1, 8,21, 0, 8,45.00,60.00,SummerDesignDay
9,13700250.
838,0.0
869,24308104.2841861
2,1, 8,21, 0, 9, 0.00,15.00,SummerDesignDay
9,13700250.
838,0.0
869,27351796.5030235
2,1, 8,21, 0, 9,15.00,30.00,SummerDesignDay
9,13700250.
838,0.0
869,30506363.6032802
2,1, 8,21, 0, 9,30.00,45.00,SummerDesignDay
9,13700250.
838,0.0
869,33782697.5188354
2,1, 8,21, 0, 9,45.00,60.00,SummerDesignDay
9,13700250.
838,0.0
869,37181471.612116
2,1, 8,21, 0,10, 0.00,15.00,SummerDesignDay
9,13700250.
838,0.0
869,40377922.0184057
2,1, 8,21, 0,10,15.00,30.00,SummerDesignDay
9,13700250.
838,0.0
869,43614298.8648309
2,1, 8,21, 0,10,30.00,45.00,SummerDesignDay
9,13700250.
838,0.0
869,46879465.5654446
2,1, 8,21, 0,10,45.00,60.00,SummerDesignDay
9,13700250.
838,0.0
869,50195063.6093524
2,1, 8,21, 0,11, 0.00,15.00,SummerDesignDay
9,13700250.
838,0.0
869,53274752.1933108
2,1, 8,21, 0,11,15.00,30.00,SummerDesignDay
9,13700250.
838,0.0
869,56355040.681324
2,1, 8,21, 0,11,30.00,45.00,SummerDesignDay
9,13700250.
838,0.0
869,59462751.7867251
2,1, 8,21, 0,11,45.00,60.00,SummerDesignDay
9,13700250.
838,0.0
869,62591324.3628873
2,1, 8,21, 0,12, 0.00,15.00,SummerDesignDay
9,13700250.
838,0.0
869,64462806.8683361
2,1, 8,21, 0,12,15.00,30.00,SummerDesignDay
9,13700250.
838,0.0
869,65936439.921588
2,1, 8,21, 0,12,30.00,45.00,SummerDesignDay
9,13700250.
838,0.0
869,67294249.1073298
2,1, 8,21, 0,12,45.00,60.00,SummerDesignDay
9,13700250.
838,0.0
869,68632769.0313029
2,1, 8,21, 0,13, 0.00,15.00,SummerDesignDay
9,13700250.
838,0.0
869,69660935.6245166
2,1, 8,21, 0,13,15.00,30.00,SummerDesignDay
9,13700250.
838,0.0
869,70701264.3861657
2,1, 8,21, 0,13,30.00,45.00,SummerDesignDay
9,13700250.
838,0.0
869,71733377.9973381
2,1, 8,21, 0,13,45.00,60.00,SummerDesignDay
9,13700250.
838,0.0
869,72737643.6386944
2,1, 8,21, 0,14, 0.00,15.00,SummerDesignDay
9,13700250.
838,0.0
869,73298537.1668693
2,1, 8,21, 0,14,15.00,30.00,SummerDesignDay
9,13700250.
838,0.0
869,73893031.7589982
2,1, 8,21, 0,14,30.00,45.00,SummerDesignDay
9,13700250.
838,0.0
869,74504493.7767141
2,1, 8,21, 0,14,45.00,60.00,SummerDesignDay
9,13700250.
838,0.0
869,75094354.0946101
2,1, 8,21, 0,15, 0.00,15.00,SummerDesignDay
9,13700250.
838,0.0
869,74973586.3644718
2,1, 8,21, 0,15,15.00,30.00,SummerDesignDay
9,13700250.
838,0.0
869,74928007.1285307
2,1, 8,21, 0,15,30.00,45.00,SummerDesignDay
9,13700250.
838,0.0
869,74926134.1828404
2,1, 8,21, 0,15,45.00,60.00,SummerDesignDay
9,13700250.
838,0.0
869,74900083.9250844
2,1, 8,21, 0,16, 0.00,15.00,SummerDesignDay
9,13700250.
838,0.0
869,74036811.4624979
2,1, 8,21, 0,16,15.00,30.00,SummerDesignDay
9,13700250.
838,0.0
869,73271714.0068622
2,1, 8,21, 0,16,30.00,45.00,SummerDesignDay
9,13700250.
838,0.0
869,72573731.2804599
2,1, 8,21, 0,16,45.00,60.00,SummerDesignDay
9,13700250.
838,0.0
869,71921950.1813804
2,1, 8,21, 0,17, 0.00,15.00,SummerDesignDay
9,13700250.
838,0.0
869,71000188.1171429
2,1, 8,21, 0,17,15.00,30.00,SummerDesignDay
9,13700250.
838,0.0
869,70122726.6427039
2,1, 8,21, 0,17,30.00,45.00,SummerDesignDay
9,13700250.
838,0.0
869,69256929.9118211
2,1, 8,21, 0,17,45.00,60.00,SummerDesignDay
9,13700250.
838,0.0
869,68336553.8341919
2,1, 8,21, 0,18, 0.00,15.00,SummerDesignDay
9,13700250.
838,0.0
869,67142653.7193204
2,1, 8,21, 0,18,15.00,30.00,SummerDesignDay
9,13700250.
838,0.0
869,65984283.0842114
2,1, 8,21, 0,18,30.00,45.00,SummerDesignDay
9,13700250.
838,0.0
869,64833559.6796169
2,1, 8,21, 0,18,45.00,60.00,SummerDesignDay
9,13700250.
838,0.0
869,63703021.3994172
2,1, 8,21, 0,19, 0.00,15.00,SummerDesignDay
9,13700250.
838,0.0
869,61847699.9248818
2,1, 8,21, 0,19,15.00,30.00,SummerDesignDay
9,13700250.
838,0.0
869,59754567.3528164
2,1, 8,21, 0,19,30.00,45.00,SummerDesignDay
9,13700250.
838,0.0
869,57118855.0492786
2,1, 8,21, 0,19,45.00,60.00,SummerDesignDay
9,13700250.
838,0.0
869,54151774.0398409
2,1, 8,21, 0,20, 0.00,15.00,SummerDesignDay
9,13700250.
838,0.0
869,51849098.2304453
2,1, 8,21, 0,20,15.00,30.00,SummerDesignDay
9,13700250.
838,0.0
869,49689380.2020149
2,1, 8,21, 0,20,30.00,45.00,SummerDesignDay
9,13700250.
838,0.0
869,47607310.2781486
2,1, 8,21, 0,20,45.00,60.00,SummerDesignDay
9,13700250.
838,0.0
869,45546262.5926254
2,1, 8,21, 0,21, 0.00,15.00,SummerDesignDay
9,13700250.
838,0.0
869,43773688.5654379
2,1, 8,21, 0,21,15.00,30.00,SummerDesignDay
9,13700250.
838,0.0
869,42035028.5323145
2,1, 8,21, 0,21,30.00,45.00,SummerDesignDay
9,13700250.
838,0.0
869,40322980.1119834
2,1, 8,21, 0,21,45.00,60.00,SummerDesignDay
9,13700250.
838,0.0
869,38625790.2777311
2,1, 8,21, 0,22, 0.00,15.00,SummerDesignDay
9,13700250.
838,0.0
869,36933527.2749838
2,1, 8,21, 0,22,15.00,30.00,SummerDesignDay
9,13700250.
838,0.0
869,35247732.6872473
2,1, 8,21, 0,22,30.00,45.00,SummerDesignDay
9,13700250.
838,0.0
869,33571169.9796586
2,1, 8,21, 0,22,45.00,60.00,SummerDesignDay
9,13700250.
838,0.0
869,31904866.8586088
2,1, 8,21, 0,23, 0.00,15.00,SummerDesignDay
9,13700250.
838,0.0
869,0.0
2,1, 8,21, 0,23,15.00,30.00,SummerDesignDay
9,13700250.
838,0.0
869,1373042.15688872
2,1, 8,21, 0,23,30.00,45.00,SummerDesignDay
9,13700250.
838,0.0
869,1914534.31144279
2,1, 8,21, 0,23,45.00,60.00,SummerDesignDay
9,13700250.
838,0.0
869,3118775.68808183
2,1, 8,21, 0,24, 0.00,15.00,SummerDesignDay
9,13700250.
838,0.0
869,3717366.90278814
2,1, 8,21, 0,24,15.00,30.00,SummerDesignDay
9,13700250.
838,0.0
869,3144174.91442436
2,1, 8,21, 0,24,30.00,45.00,SummerDesignDay
9,13700250.
838,0.0
869,3045318.9588306
2,1, 8,21, 0,24,45.00,60.00,SummerDesignDay
9,13700250.
838,0.0
869,2800782.60571557
1,ROME ANN CLG .4% CONDNS ENTH=>MDB,  41.80,  12.23,   1.00,   3.00
2,1, 8,21, 0, 1, 0.00,15.00,SummerDesignDay
9,13700250.
838,0.0
869,4559014.56572077
2,1, 8,21, 0, 1,15.00,30.00,SummerDesignDay
9,13700250.
838,0.0
869,4283548.96649708
2,1, 8,21, 0, 1,30.00,45.00,SummerDesignDay
9,13700250.
838,0.0
869,4001035.91499205
2,1, 8,21, 0, 1,45.00,60.00,SummerDesignDay
9,13700250.
838,0.0
869,3732320.99026943
2,1, 8,21, 0, 2, 0.00,15.00,SummerDesignDay
9,13700250.
838,0.0
869,3515283.96213469
2,1, 8,21, 0, 2,15.00,30.00,SummerDesignDay
9,13700250.
838,0.0
869,3316504.03462537
2,1, 8,21, 0, 2,30.00,45.00,SummerDesignDay
9,13700250.
838,0.0
869,3130255.91599246
2,1, 8,21, 0, 2,45.00,60.00,SummerDesignDay
9,13700250.
838,0.0
869,2952460.91393502
2,1, 8,21, 0, 3, 0.00,15.00,SummerDesignDay
9,13700250.
838,0.0
869,2796545.16283322
2,1, 8,21, 0, 3,15.00,30.00,SummerDesignDay
9,13700250.
838,0.0
869,2646281.77411484
2,1, 8,21, 0, 3,30.00,45.00,SummerDesignDay
9,13700250.
838,0.0
869,2500075.96299436
2,1, 8,21, 0, 3,45.00,60.00,SummerDesignDay
9,13700250.
838,0.0
869,2356940.75431251
2,1, 8,21, 0, 4, 0.00,15.00,SummerDesignDay
9,13700250.
838,0.0
869,2216147.09113576
2,1, 8,21, 0, 4,15.00,30.00,SummerDesignDay
9,13700250.
838,0.0
869,2077166.33918712
2,1, 8,21, 0, 4,30.00,45.00,SummerDesignDay
9,13700250.
838,0.0
869,1939622.24351732
2,1, 8,21, 0, 4,45.00,60.00,SummerDesignDay
9,13700250.
838,0.0
869,1803247.91872472
2,1, 8,21, 0, 5, 0.00,15.00,SummerDesignDay
9,13700250.
838,0.0
869,1684015.27287951
2,1, 8,21, 0, 5,15.00,30.00,SummerDesignDay
9,13700250.
838,0.0
869,1567175.07657404
2,1, 8,21, 0, 5,30.00,45.00,SummerDesignDay
9,13700250.
838,0.0
869,1452036.47106437
2,1, 8,21, 0, 5,45.00,60.00,SummerDesignDay
9,13700250.
838,0.0
869,1338284.1523259
2,1, 8,21, 0, 6, 0.00,15.00,SummerDesignDay
9,13700250.
838,0.0
869,1290178.80639556
2,1, 8,21, 0, 6,15.00,30.00,SummerDesignDay
9,13700250.
838,0.0
869,1272496.2136814
2,1, 8,21, 0, 6,30.00,45.00,SummerDesignDay
9,13700250.
838,0.0
869,1311756.35650931
2,1, 8,21, 0, 6,45.00,60.00,SummerDesignDay
9,13700250.
838,0.0
869,1393183.47228628
2,1, 8,21, 0, 7, 0.00,15.00,SummerDesignDay
9,13700250.
838,0.0
869,31918723.1121027
2,1, 8,21, 0, 7,15.00,30.00,SummerDesignDay
9,13700250.
838,0.0
869,4858305.29817793
2,1, 8,21, 0, 7,30.00,45.00,SummerDesignDay
9,13700250.
838,0.0
869,27184801.2412955
2,1, 8,21, 0, 7,45.00,60.00,SummerDesignDay
9,13700250.
838,0.0
869,22336854.6331185
2,1, 8,21, 0, 8, 0.00,15.00,SummerDesignDay
9,13700250.
838,0.0
869,24528578.377565
2,1, 8,21, 0, 8,15.00,30.00,SummerDesignDay
9,13700250.
838,0.0
869,26877059.1540867
2,1, 8,21, 0, 8,30.00,45.00,SummerDesignDay
9,13700250.
838,0.0
869,29622768.4226697
2,1, 8,21, 0, 8,45.00,60.00,SummerDesignDay
9,13700250.
838,0.0
869,32496277.8829592
2,1, 8,21, 0, 9, 0.00,15.00,SummerDesignDay
9,13700250.
838,0.0
869,35671777.2324745
2,1, 8,21, 0, 9,15.00,30.00,SummerDesignDay
9,13700250.
838,0.0
869,38939070.8745775
2,1, 8,21, 0, 9,30.00,45.00,SummerDesignDay
9,13700250.
838,0.0
869,42315143.4827792
2,1, 8,21, 0, 9,45.00,60.00,SummerDesignDay
9,13700250.
838,0.0
869,45812003.4976191
2,1, 8,21, 0,10, 0.00,15.00,SummerDesignDay
9,13700250.
838,0.0
869,49109338.7040605
2,1, 8,21, 0,10,15.00,30.00,SummerDesignDay
9,13700250.
838,0.0
869,52458328.7695684
2,1, 8,21, 0,10,30.00,45.00,SummerDesignDay
9,13700250.
838,0.0
869,55845013.6707826
2,1, 8,21, 0,10,45.00,60.00,SummerDesignDay
9,13700250.
838,0.0
869,59294277.0150345
2,1, 8,21, 0,11, 0.00,15.00,SummerDesignDay
9,13700250.
838,0.0
869,62501567.3768364
2,1, 8,21, 0,11,15.00,30.00,SummerDesignDay
9,13700250.
838,0.0
869,65737046.9504134
2,1, 8,21, 0,11,30.00,45.00,SummerDesignDay
9,13700250.
838,0.0
869,68983951.3350097
2,1, 8,21, 0,11,45.00,60.00,SummerDesignDay
9,13700250.
838,0.0
869,72259357.1733349
2,1, 8,21, 0,12, 0.00,15.00,SummerDesignDay
9,13700250.
838,0.0
869,74815802.7563171
2,1, 8,21, 0,12,15.00,30.00,SummerDesignDay
9,13700250.
838,0.0
869,77264685.2568297
2,1, 8,21, 0,12,30.00,45.00,SummerDesignDay
9,13700250.
838,0.0
869,79632164.1791563
2,1, 8,21, 0,12,45.00,60.00,SummerDesignDay
9,13700250.
838,0.0
869,81983531.2786627
2,1, 8,21, 0,13, 0.00,15.00,SummerDesignDay
9,13700250.
838,0.0
869,84027012.5125967
2,1, 8,21, 0,13,15.00,30.00,SummerDesignDay
9,13700250.
838,0.0
869,86013124.4596694
2,1, 8,21, 0,13,30.00,45.00,SummerDesignDay
9,13700250.
838,0.0
869,87946306.4996487
2,1, 8,21, 0,13,45.00,60.00,SummerDesignDay
9,13700250.
838,0.0
869,89853078.6005709
2,1, 8,21, 0,14, 0.00,15.00,SummerDesignDay
9,13700250.
838,0.0
869,91281790.5681797
2,1, 8,21, 0,14,15.00,30.00,SummerDesignDay
9,13700250.
838,0.0
869,92595108.9850261
2,1, 8,21, 0,14,30.00,45.00,SummerDesignDay
9,13700250.
838,0.0
869,93822571.884354
2,1, 8,21, 0,14,45.00,60.00,SummerDesignDay
9,13700250.
838,0.0
869,95007686.5822342
2,1, 8,21, 0,15, 0.00,15.00,SummerDesignDay
9,13700250.
838,0.0
869,95379752.227864
2,1, 8,21, 0,15,15.00,30.00,SummerDesignDay
9,13700250.
838,0.0
869,95553122.1388582
2,1, 8,21, 0,15,30.00,45.00,SummerDesignDay
9,13700250.
838,0.0
869,95583164.7501442
2,1, 8,21, 0,15,45.00,60.00,SummerDesignDay
9,13700250.
838,0.0
869,95543159.6622529
2,1, 8,21, 0,16, 0.00,15.00,SummerDesignDay
9,13700250.
838,0.0
869,94535252.0022856
2,1, 8,21, 0,16,15.00,30.00,SummerDesignDay
9,13700250.
838,0.0
869,93309786.4326842
2,1, 8,21, 0,16,30.00,45.00,SummerDesignDay
9,13700250.
838,0.0
869,91943556.4246894
2,1, 8,21, 0,16,45.00,60.00,SummerDesignDay
9,13700250.
838,0.0
869,90594424.9885822
2,1, 8,21, 0,17, 0.00,15.00,SummerDesignDay
9,13700250.
838,0.0
869,88956302.1036689
2,1, 8,21, 0,17,15.00,30.00,SummerDesignDay
9,13700250.
838,0.0
869,87282468.3209953
2,1, 8,21, 0,17,30.00,45.00,SummerDesignDay
9,13700250.
838,0.0
869,85562110.2943453
2,1, 8,21, 0,17,45.00,60.00,SummerDesignDay
9,13700250.
838,0.0
869,83779423.3500072
2,1, 8,21, 0,18, 0.00,15.00,SummerDesignDay
9,13700250.
838,0.0
869,81717875.171673
2,1, 8,21, 0,18,15.00,30.00,SummerDesignDay
9,13700250.
838,0.0
869,79622362.4421597
2,1, 8,21, 0,18,30.00,45.00,SummerDesignDay
9,13700250.
838,0.0
869,77501529.5029286
2,1, 8,21, 0,18,45.00,60.00,SummerDesignDay
9,13700250.
838,0.0
869,75425773.2594039
2,1, 8,21, 0,19, 0.00,15.00,SummerDesignDay
9,13700250.
838,0.0
869,72631080.9542746
2,1, 8,21, 0,19,15.00,30.00,SummerDesignDay
9,13700250.
838,0.0
869,69682520.2223641
2,1, 8,21, 0,19,30.00,45.00,SummerDesignDay
9,13700250.
838,0.0
869,66589692.1128174
2,1, 8,21, 0,19,45.00,60.00,SummerDesignDay
9,13700250.
838,0.0
869,63433722.891326
2,1, 8,21, 0,20, 0.00,15.00,SummerDesignDay
9,13700250.
838,0.0
869,61019410.0116185
2,1, 8,21, 0,20,15.00,30.00,SummerDesignDay
9,13700250.
838,0.0
869,58780236.1082548
2,1, 8,21, 0,20,30.00,45.00,SummerDesignDay
9,13700250.
838,0.0
869,56620312.8262263
2,1, 8,21, 0,20,45.00,60.00,SummerDesignDay
9,13700250.
838,0.0
869,54491322.2085221
2,1, 8,21, 0,21, 0.00,15.00,SummerDesignDay
9,13700250.
838,0.0
869,52655920.6495354
2,1, 8,21, 0,21,15.00,30.00,SummerDesignDay
9,13700250.
838,0.0
869,50853514.6783654
2,1, 8,21, 0,21,30.00,45.00,SummerDesignDay
9,13700250.
838,0.0
869,49080992.3549226
2,1, 8,21, 0,21,45.00,60.00,SummerDesignDay
9,13700250.
838,0.0
869,47322514.6826502
2,1, 8,21, 0,22, 0.00,15.00,SummerDesignDay
9,13700250.
838,0.0
869,45571127.7755151
2,1, 8,21, 0,22,15.00,30.00,SummerDesignDay
9,13700250.
838,0.0
869,43826905.7988832
2,1, 8,21, 0,22,30.00,45.00,SummerDesignDay
9,13700250.
838,0.0
869,42092076.1504477
2,1, 8,21, 0,22,45.00,60.00,SummerDesignDay
9,13700250.
838,0.0
869,40363366.0985789
2,1, 8,21, 0,23, 0.00,15.00,SummerDesignDay
9,13700250.
838,0.0
869,830201.410454249
2,1, 8,21, 0,23,15.00,30.00,SummerDesignDay
9,13700250.
838,0.0
869,2995341.5067251
2,1, 8,21, 0,23,30.00,45.00,SummerDesignDay
9,13700250.
838,0.0
869,4104828.89454223
2,1, 8,21, 0,23,45.00,60.00,SummerDesignDay
9,13700250.
838,0.0
869,5380794.6130896
2,1, 8,21, 0,24, 0.00,15.00,SummerDesignDay
9,13700250.
838,0.0
869,5181523.91993255
2,1, 8,21, 0,24,15.00,30.00,SummerDesignDay
9,13700250.
838,0.0
869,4972651.17782569
2,1, 8,21, 0,24,30.00,45.00,SummerDesignDay
9,13700250.
838,0.0
869,4752885.79405996
2,1, 8,21, 0,24,45.00,60.00,SummerDesignDay
9,13700250.
838,0.0
869,4490766.07616808
1,ROME ANN CLG .4% CONDNS WB=>MDB,  41.80,  12.23,   1.00,   3.00
2,1, 8,21, 0, 1, 0.00,15.00,SummerDesignDay
9,13700250.
838,0.0
869,4270967.09840534
2,1, 8,21, 0, 1,15.00,30.00,SummerDesignDay
9,13700250.
838,0.0
869,3999528.5668467
2,1, 8,21, 0, 1,30.00,45.00,SummerDesignDay
9,13700250.
838,0.0
869,3721869.91564779
2,1, 8,21, 0, 1,45.00,60.00,SummerDesignDay
9,13700250.
838,0.0
869,3457158.40590929
2,1, 8,21, 0, 2, 0.00,15.00,SummerDesignDay
9,13700250.
838,0.0
869,3242912.89277653
2,1, 8,21, 0, 2,15.00,30.00,SummerDesignDay
9,13700250.
838,0.0
869,3045817.61068722
2,1, 8,21, 0, 2,30.00,45.00,SummerDesignDay
9,13700250.
838,0.0
869,2860477.4704691
2,1, 8,21, 0, 2,45.00,60.00,SummerDesignDay
9,13700250.
838,0.0
869,2683093.41436746
2,1, 8,21, 0, 3, 0.00,15.00,SummerDesignDay
9,13700250.
838,0.0
869,2527311.90433904
2,1, 8,21, 0, 3,15.00,30.00,SummerDesignDay
9,13700250.
838,0.0
869,2376947.09964786
2,1, 8,21, 0, 3,30.00,45.00,SummerDesignDay
9,13700250.
838,0.0
869,2230451.9553934
2,1, 8,21, 0, 3,45.00,60.00,SummerDesignDay
9,13700250.
838,0.0
869,2086883.4060536
2,1, 8,21, 0, 4, 0.00,15.00,SummerDesignDay
9,13700250.
838,0.0
869,1945548.72959147
2,1, 8,21, 0, 4,15.00,30.00,SummerDesignDay
9,13700250.
838,0.0
869,1805946.26922186
2,1, 8,21, 0, 4,30.00,45.00,SummerDesignDay
9,13700250.
838,0.0
869,1667718.28086895
2,1, 8,21, 0, 4,45.00,60.00,SummerDesignDay
9,13700250.
838,0.0
869,1530609.94777812
2,1, 8,21, 0, 5, 0.00,15.00,SummerDesignDay
9,13700250.
838,0.0
869,1410643.46303928
2,1, 8,21, 0, 5,15.00,30.00,SummerDesignDay
9,13700250.
838,0.0
869,1293015.97843111
2,1, 8,21, 0, 5,30.00,45.00,SummerDesignDay
9,13700250.
838,0.0
869,1177026.83901818
2,1, 8,21, 0, 5,45.00,60.00,SummerDesignDay
9,13700250.
838,0.0
869,1062365.4363338
2,1, 8,21, 0, 6, 0.00,15.00,SummerDesignDay
9,13700250.
838,0.0
869,1013486.52985938
2,1, 8,21, 0, 6,15.00,30.00,SummerDesignDay
9,13700250.
838,0.0
869,995091.173930843
2,1, 8,21, 0, 6,30.00,45.00,SummerDesignDay
9,13700250.
838,0.0
869,1033913.89929477
2,1, 8,21, 0, 6,45.00,60.00,SummerDesignDay
9,13700250.
838,0.0
869,1115172.81692933
2,1, 8,21, 0, 7, 0.00,15.00,SummerDesignDay
9,13700250.
838,0.0
869,30280231.7593812
2,1, 8,21, 0, 7,15.00,30.00,SummerDesignDay
9,13700250.
838,0.0
869,3443671.13821652
2,1, 8,21, 0, 7,30.00,45.00,SummerDesignDay
9,13700250.
838,0.0
869,25592794.4731962
2,1, 8,21, 0, 7,45.00,60.00,SummerDesignDay
9,13700250.
838,0.0
869,20782843.9425882
2,1, 8,21, 0, 8, 0.00,15.00,SummerDesignDay
9,13700250.
838,0.0
869,23029168.1391378
2,1, 8,21, 0, 8,15.00,30.00,SummerDesignDay
9,13700250.
838,0.0
869,25382678.0600451
2,1, 8,21, 0, 8,30.00,45.00,SummerDesignDay
9,13700250.
838,0.0
869,28112887.335168
2,1, 8,21, 0, 8,45.00,60.00,SummerDesignDay
9,13700250.
838,0.0
869,30968668.2841107
2,1, 8,21, 0, 9, 0.00,15.00,SummerDesignDay
9,13700250.
838,0.0
869,34128593.3900846
2,1, 8,21, 0, 9,15.00,30.00,SummerDesignDay
9,13700250.
838,0.0
869,37379858.6150354
2,1, 8,21, 0, 9,30.00,45.00,SummerDesignDay
9,13700250.
838,0.0
869,40738622.2520698
2,1, 8,21, 0, 9,45.00,60.00,SummerDesignDay
9,13700250.
838,0.0
869,44219993.3629629
2,1, 8,21, 0,10, 0.00,15.00,SummerDesignDay
9,13700250.
838,0.0
869,47496582.9045926
2,1, 8,21, 0,10,15.00,30.00,SummerDesignDay
9,13700250.
838,0.0
869,50826176.7051607
2,1, 8,21, 0,10,30.00,45.00,SummerDesignDay
9,13700250.