Program Version,EnergyPlus, Version 8.5.0-c87e61b44b, YMD=2018.01.10 00:15
1,5,Environment Title[],Latitude[deg],Longitude[deg],Time Zone[],Elevation[m]
2,6,Day of Simulation[],Month[],Day of Month[],DST Indicator[1=yes 0=no],Hour[],StartMinute[],EndMinute[],DayType
3,3,Cumulative Day of Simulation[],Month[],Day of Month[],DST Indicator[1=yes 0=no],DayType  ! When Daily Meters Requested
4,2,Cumulative Days of Simulation[],Month[]  ! When Monthly Meters Requested
5,1,Cumulative Days of Simulation[] ! When Run Period Meters Requested
9,1,Electricity:Facility [J] !TimeStep
407,1,DistrictCooling:Facility [J] !TimeStep
376,1,DistrictHeating:Facility [J] !TimeStep
End of Data Dictionary
1,BEIJING ANN CLG .4% CONDNS DB=>MWB,   1.37, 103.98,   8.00,  16.00
2,1, 7,21, 0, 1, 0.00,15.00,SummerDesignDay
9,6493350.48670097
376,0.0
407,11548847.4833644
2,1, 7,21, 0, 1,15.00,30.00,SummerDesignDay
9,6493350.48670097
376,0.0
407,11257861.3362207
2,1, 7,21, 0, 1,30.00,45.00,SummerDesignDay
9,6493350.48670097
376,0.0
407,10930332.5090439
2,1, 7,21, 0, 1,45.00,60.00,SummerDesignDay
9,6493350.48670097
376,0.0
407,10583333.6582259
2,1, 7,21, 0, 2, 0.00,15.00,SummerDesignDay
9,6493350.48670097
376,0.0
407,10280703.2134991
2,1, 7,21, 0, 2,15.00,30.00,SummerDesignDay
9,6493350.48670097
376,0.0
407,9977946.03473742
2,1, 7,21, 0, 2,30.00,45.00,SummerDesignDay
9,6493350.48670097
376,0.0
407,9676681.67345994
2,1, 7,21, 0, 2,45.00,60.00,SummerDesignDay
9,6493350.48670097
376,0.0
407,9363206.62978349
2,1, 7,21, 0, 3, 0.00,15.00,SummerDesignDay
9,6493350.48670097
376,0.0
407,9070752.48547124
2,1, 7,21, 0, 3,15.00,30.00,SummerDesignDay
9,6493350.48670097
376,0.0
407,8770995.52662756
2,1, 7,21, 0, 3,30.00,45.00,SummerDesignDay
9,6493350.48670097
376,0.0
407,8467717.04722726
2,1, 7,21, 0, 3,45.00,60.00,SummerDesignDay
9,6493350.48670097
376,0.0
407,8162586.99362946
2,1, 7,21, 0, 4, 0.00,15.00,SummerDesignDay
9,6493350.48670097
376,0.0
407,7857462.95003588
2,1, 7,21, 0, 4,15.00,30.00,SummerDesignDay
9,6493350.48670097
376,0.0
407,7549006.15103577
2,1, 7,21, 0, 4,30.00,45.00,SummerDesignDay
9,6493350.48670097
376,0.0
407,7231346.46692605
2,1, 7,21, 0, 4,45.00,60.00,SummerDesignDay
9,6493350.48670097
376,0.0
407,6903572.97785836
2,1, 7,21, 0, 5, 0.00,15.00,SummerDesignDay
9,6493350.48670097
376,0.0
407,6601013.5216255
2,1, 7,21, 0, 5,15.00,30.00,SummerDesignDay
9,6493350.48670097
376,0.0
407,6298884.57881286
2,1, 7,21, 0, 5,30.00,45.00,SummerDesignDay
9,6493350.48670097
376,0.0
407,5995824.25867442
2,1, 7,21, 0, 5,45.00,60.00,SummerDesignDay
9,6493350.48670097
376,0.0
407,5692014.55342313
2,1, 7,21, 0, 6, 0.00,15.00,SummerDesignDay
9,6493350.48670097
376,0.0
407,5518239.19015819
2,1, 7,21, 0, 6,15.00,30.00,SummerDesignDay
9,6493350.48670097
376,0.0
407,5348967.5322813
2,1, 7,21, 0, 6,30.00,45.00,SummerDesignDay
9,6493350.48670097
376,0.0
407,5193545.34241617
2,1, 7,21, 0, 6,45.00,60.00,SummerDesignDay
9,6493350.48670097
376,0.0
407,5044187.22911503
2,1, 7,21, 0, 7, 0.00,15.00,SummerDesignDay
9,6493350.48670097
376,0.0
407,53287999.942092
2,1, 7,21, 0, 7,15.00,30.00,SummerDesignDay
9,6493350.48670097
376,0.0
407,4712016.63440198
2,1, 7,21, 0, 7,30.00,45.00,SummerDesignDay
9,6493350.48670097
376,0.0
407,27365054.2674176
2,1, 7,21, 0, 7,45.00,60.00,SummerDesignDay
9,6493350.48670097
376,0.0
407,28039402.5466306
2,1, 7,21, 0, 8, 0.00,15.00,SummerDesignDay
9,6493350.48670097
376,0.0
407,23268852.187366
2,1, 7,21, 0, 8,15.00,30.00,SummerDesignDay
9,6493350.48670097
376,0.0
407,24183600.9514946
2,1, 7,21, 0, 8,30.00,45.00,SummerDesignDay
9,6493350.48670097
376,0.0
407,24687723.5325517
2,1, 7,21, 0, 8,45.00,60.00,SummerDesignDay
9,6493350.48670097
376,0.0
407,25346706.3328603
2,1, 7,21, 0, 9, 0.00,15.00,SummerDesignDay
9,6493350.48670097
376,0.0
407,26268232.2844565
2,1, 7,21, 0, 9,15.00,30.00,SummerDesignDay
9,6493350.48670097
376,0.0
407,27167987.2234593
2,1, 7,21, 0, 9,30.00,45.00,SummerDesignDay
9,6493350.48670097
376,0.0
407,28043857.3445562
2,1, 7,21, 0, 9,45.00,60.00,SummerDesignDay
9,6493350.48670097
376,0.0
407,28912158.9699693
2,1, 7,21, 0,10, 0.00,15.00,SummerDesignDay
9,6493350.48670097
376,0.0
407,29712527.0699315
2,1, 7,21, 0,10,15.00,30.00,SummerDesignDay
9,6493350.48670097
376,0.0
407,30660689.3145264
2,1, 7,21, 0,10,30.00,45.00,SummerDesignDay
9,6493350.48670097
376,0.0
407,31550701.3383785
2,1, 7,21, 0,10,45.00,60.00,SummerDesignDay
9,6493350.48670097
376,0.0
407,32393986.0671506
2,1, 7,21, 0,11, 0.00,15.00,SummerDesignDay
9,6493350.48670097
376,0.0
407,33161016.5085971
2,1, 7,21, 0,11,15.00,30.00,SummerDesignDay
9,6493350.48670097
376,0.0
407,33921473.0905259
2,1, 7,21, 0,11,30.00,45.00,SummerDesignDay
9,6493350.48670097
376,0.0
407,34810511.5112626
2,1, 7,21, 0,11,45.00,60.00,SummerDesignDay
9,6493350.48670097
376,0.0
407,35818377.9084611
2,1, 7,21, 0,12, 0.00,15.00,SummerDesignDay
9,6493350.48670097
376,0.0
407,36722785.7896691
2,1, 7,21, 0,12,15.00,30.00,SummerDesignDay
9,6493350.48670097
376,0.0
407,37642664.4355965
2,1, 7,21, 0,12,30.00,45.00,SummerDesignDay
9,6493350.48670097
376,0.0
407,38554704.8025981
2,1, 7,21, 0,12,45.00,60.00,SummerDesignDay
9,6493350.48670097
376,0.0
407,39474865.8095853
2,1, 7,21, 0,13, 0.00,15.00,SummerDesignDay
9,6493350.48670097
376,0.0
407,40334620.7538186
2,1, 7,21, 0,13,15.00,30.00,SummerDesignDay
9,6493350.48670097
376,0.0
407,41185471.2645939
2,1, 7,21, 0,13,30.00,45.00,SummerDesignDay
9,6493350.48670097
376,0.0
407,42031945.8600747
2,1, 7,21, 0,13,45.00,60.00,SummerDesignDay
9,6493350.48670097
376,0.0
407,42874657.0685382
2,1, 7,21, 0,14, 0.00,15.00,SummerDesignDay
9,6493350.48670097
376,0.0
407,43617130.7793992
2,1, 7,21, 0,14,15.00,30.00,SummerDesignDay
9,6493350.48670097
376,0.0
407,44345525.7824359
2,1, 7,21, 0,14,30.00,45.00,SummerDesignDay
9,6493350.48670097
376,0.0
407,45066534.4122322
2,1, 7,21, 0,14,45.00,60.00,SummerDesignDay
9,6493350.48670097
376,0.0
407,45777033.5483811
2,1, 7,21, 0,15, 0.00,15.00,SummerDesignDay
9,6493350.48670097
376,0.0
407,46304489.646802
2,1, 7,21, 0,15,15.00,30.00,SummerDesignDay
9,6493350.48670097
376,0.0
407,46798701.9026645
2,1, 7,21, 0,15,30.00,45.00,SummerDesignDay
9,6493350.48670097
376,0.0
407,47278998.7862334
2,1, 7,21, 0,15,45.00,60.00,SummerDesignDay
9,6493350.48670097
376,0.0
407,47709499.0351738
2,1, 7,21, 0,16, 0.00,15.00,SummerDesignDay
9,6493350.48670097
376,0.0
407,47893539.1147505
2,1, 7,21, 0,16,15.00,30.00,SummerDesignDay
9,6493350.48670097
376,0.0
407,48013225.4894288
2,1, 7,21, 0,16,30.00,45.00,SummerDesignDay
9,6493350.48670097
376,0.0
407,48087119.6099743
2,1, 7,21, 0,16,45.00,60.00,SummerDesignDay
9,6493350.48670097
376,0.0
407,48299099.6482581
2,1, 7,21, 0,17, 0.00,15.00,SummerDesignDay
9,6493350.48670097
376,0.0
407,48492742.2671027
2,1, 7,21, 0,17,15.00,30.00,SummerDesignDay
9,6493350.48670097
376,0.0
407,48637453.8265327
2,1, 7,21, 0,17,30.00,45.00,SummerDesignDay
9,6493350.48670097
376,0.0
407,48711569.7307752
2,1, 7,21, 0,17,45.00,60.00,SummerDesignDay
9,6493350.48670097
376,0.0
407,48696914.0062371
2,1, 7,21, 0,18, 0.00,15.00,SummerDesignDay
9,6493350.48670097
376,0.0
407,48353949.2234256
2,1, 7,21, 0,18,15.00,30.00,SummerDesignDay
9,6493350.48670097
376,0.0
407,47964062.9469147
2,1, 7,21, 0,18,30.00,45.00,SummerDesignDay
9,6493350.48670097
376,0.0
407,47477317.5306651
2,1, 7,21, 0,18,45.00,60.00,SummerDesignDay
9,6493350.48670097
376,0.0
407,46848711.1243416
2,1, 7,21, 0,19, 0.00,15.00,SummerDesignDay
9,6493350.48670097
376,0.0
407,45776056.2348542
2,1, 7,21, 0,19,15.00,30.00,SummerDesignDay
9,6493350.48670097
376,0.0
407,44636280.7583399
2,1, 7,21, 0,19,30.00,45.00,SummerDesignDay
9,6493350.48670097
376,0.0
407,43532745.9732379
2,1, 7,21, 0,19,45.00,60.00,SummerDesignDay
9,6493350.48670097
376,0.0
407,42284508.6851704
2,1, 7,21, 0,20, 0.00,15.00,SummerDesignDay
9,6493350.48670097
376,0.0
407,41429405.3473555
2,1, 7,21, 0,20,15.00,30.00,SummerDesignDay
9,6493350.48670097
376,0.0
407,40754058.0607013
2,1, 7,21, 0,20,30.00,45.00,SummerDesignDay
9,6493350.48670097
376,0.0
407,40103322.9700097
2,1, 7,21, 0,20,45.00,60.00,SummerDesignDay
9,6493350.48670097
376,0.0
407,39434742.1176609
2,1, 7,21, 0,21, 0.00,15.00,SummerDesignDay
9,6493350.48670097
376,0.0
407,38801078.6226
2,1, 7,21, 0,21,15.00,30.00,SummerDesignDay
9,6493350.48670097
376,0.0
407,38150737.6081137
2,1, 7,21, 0,21,30.00,45.00,SummerDesignDay
9,6493350.48670097
376,0.0
407,37481424.2353521
2,1, 7,21, 0,21,45.00,60.00,SummerDesignDay
9,6493350.48670097
376,0.0
407,36796302.28919
2,1, 7,21, 0,22, 0.00,15.00,SummerDesignDay
9,6493350.48670097
376,0.0
407,36099071.1127283
2,1, 7,21, 0,22,15.00,30.00,SummerDesignDay
9,6493350.48670097
376,0.0
407,35392997.6919698
2,1, 7,21, 0,22,30.00,45.00,SummerDesignDay
9,6493350.48670097
376,0.0
407,34680811.0771456
2,1, 7,21, 0,22,45.00,60.00,SummerDesignDay
9,6493350.48670097
376,0.0
407,33964783.9413122
2,1, 7,21, 0,23, 0.00,15.00,SummerDesignDay
9,6493350.48670097
376,0.0
407,2262451.56425595
2,1, 7,21, 0,23,15.00,30.00,SummerDesignDay
9,6493350.48670097
376,0.0
407,4933251.41418054
2,1, 7,21, 0,23,30.00,45.00,SummerDesignDay
9,6493350.48670097
376,0.0
407,7294823.18110328
2,1, 7,21, 0,23,45.00,60.00,SummerDesignDay
9,6493350.48670097
376,0.0
407,11480278.1511274
2,1, 7,21, 0,24, 0.00,15.00,SummerDesignDay
9,6493350.48670097
376,0.0
407,12851765.0064153
2,1, 7,21, 0,24,15.00,30.00,SummerDesignDay
9,6493350.48670097
376,0.0
407,11910373.0142051
2,1, 7,21, 0,24,30.00,45.00,SummerDesignDay
9,6493350.48670097
376,0.0
407,12074362.6140172
2,1, 7,21, 0,24,45.00,60.00,SummerDesignDay
9,6493350.48670097
376,0.0
407,11869702.9466987
1,BEIJING ANN CLG .4% CONDNS DP=>MDB,   1.37, 103.98,   8.00,  16.00
2,1, 7,21, 0, 1, 0.00,15.00,SummerDesignDay
9,6493350.48670097
376,0.0
407,2141901.18112858
2,1, 7,21, 0, 1,15.00,30.00,SummerDesignDay
9,6493350.48670097
376,0.0
407,2057197.59269378
2,1, 7,21, 0, 1,30.00,45.00,SummerDesignDay
9,6493350.48670097
376,0.0
407,1968761.72368705
2,1, 7,21, 0, 1,45.00,60.00,SummerDesignDay
9,6493350.48670097
376,0.0
407,1881821.35682145
2,1, 7,21, 0, 2, 0.00,15.00,SummerDesignDay
9,6493350.48670097
376,0.0
407,1801442.2665927
2,1, 7,21, 0, 2,15.00,30.00,SummerDesignDay
9,6493350.48670097
376,0.0
407,1731606.28040587
2,1, 7,21, 0, 2,30.00,45.00,SummerDesignDay
9,6493350.48670097
376,0.0
407,1658705.4742405
2,1, 7,21, 0, 2,45.00,60.00,SummerDesignDay
9,6493350.48670097
376,0.0
407,1584087.9280958
2,1, 7,21, 0, 3, 0.00,15.00,SummerDesignDay
9,6493350.48670097
376,0.0
407,1510344.48072176
2,1, 7,21, 0, 3,15.00,30.00,SummerDesignDay
9,6493350.48670097
376,0.0
407,1436491.64206003
2,1, 7,21, 0, 3,30.00,45.00,SummerDesignDay
9,6493350.48670097
376,0.0
407,1363109.04415796
2,1, 7,21, 0, 3,45.00,60.00,SummerDesignDay
9,6493350.48670097
376,0.0
407,1290984.73638056
2,1, 7,21, 0, 4, 0.00,15.00,SummerDesignDay
9,6493350.48670097
376,0.0
407,1221563.87036766
2,1, 7,21, 0, 4,15.00,30.00,SummerDesignDay
9,6493350.48670097
376,0.0
407,1155446.85015601
2,1, 7,21, 0, 4,30.00,45.00,SummerDesignDay
9,6493350.48670097
376,0.0
407,1087401.44320667
2,1, 7,21, 0, 4,45.00,60.00,SummerDesignDay
9,6493350.48670097
376,0.0
407,1018882.35257975
2,1, 7,21, 0, 5, 0.00,15.00,SummerDesignDay
9,6493350.48670097
376,0.0
407,947060.273103853
2,1, 7,21, 0, 5,15.00,30.00,SummerDesignDay
9,6493350.48670097
376,0.0
407,873513.655146013
2,1, 7,21, 0, 5,30.00,45.00,SummerDesignDay
9,6493350.48670097
376,0.0
407,798155.443011369
2,1, 7,21, 0, 5,45.00,60.00,SummerDesignDay
9,6493350.48670097
376,0.0
407,721371.67508987
2,1, 7,21, 0, 6, 0.00,15.00,SummerDesignDay
9,6493350.48670097
376,0.0
407,650219.540549645
2,1, 7,21, 0, 6,15.00,30.00,SummerDesignDay
9,6493350.48670097
376,0.0
407,578407.042845873
2,1, 7,21, 0, 6,30.00,45.00,SummerDesignDay
9,6493350.48670097
376,0.0
407,506212.538753246
2,1, 7,21, 0, 6,45.00,60.00,SummerDesignDay
9,6493350.48670097
376,0.0
407,433738.894614658
2,1, 7,21, 0, 7, 0.00,15.00,SummerDesignDay
9,6493350.48670097
376,0.0
407,7492735.37822138
2,1, 7,21, 0, 7,15.00,30.00,SummerDesignDay
9,6493350.48670097
376,0.0
407,931155.859444433
2,1, 7,21, 0, 7,30.00,45.00,SummerDesignDay
9,6493350.48670097
376,0.0
407,4998017.57882965
2,1, 7,21, 0, 7,45.00,60.00,SummerDesignDay
9,6493350.48670097
376,0.0
407,3938939.40572444
2,1, 7,21, 0, 8, 0.00,15.00,SummerDesignDay
9,6493350.48670097
376,0.0
407,4004922.10897484
2,1, 7,21, 0, 8,15.00,30.00,SummerDesignDay
9,6493350.48670097
376,0.0
407,4064703.27646769
2,1, 7,21, 0, 8,30.00,45.00,SummerDesignDay
9,6493350.48670097
376,0.0
407,4148202.35494444
2,1, 7,21, 0, 8,45.00,60.00,SummerDesignDay
9,6493350.48670097
376,0.0
407,5059149.78219844
2,1, 7,21, 0, 9, 0.00,15.00,SummerDesignDay
9,6493350.48670097
376,0.0
407,10688442.7226152
2,1, 7,21, 0, 9,15.00,30.00,SummerDesignDay
9,6493350.48670097
376,0.0
407,11070154.696448
2,1, 7,21, 0, 9,30.00,45.00,SummerDesignDay
9,6493350.48670097
376,0.0
407,13697161.10968
2,1, 7,21, 0, 9,45.00,60.00,SummerDesignDay
9,6493350.48670097
376,0.0
407,15441119.6175316
2,1, 7,21, 0,10, 0.00,15.00,SummerDesignDay
9,6493350.48670097
376,0.0
407,16749674.9216278
2,1, 7,21, 0,10,15.00,30.00,SummerDesignDay
9,6493350.48670097
376,0.0
407,17960901.7150329
2,1, 7,21, 0,10,30.00,45.00,SummerDesignDay
9,6493350.48670097
376,0.0
407,19085363.8545867
2,1, 7,21, 0,10,45.00,60.00,SummerDesignDay
9,6493350.48670097
376,0.0
407,20248139.0208272
2,1, 7,21, 0,11, 0.00,15.00,SummerDesignDay
9,6493350.48670097
376,0.0
407,21363654.1997133
2,1, 7,21, 0,11,15.00,30.00,SummerDesignDay
9,6493350.48670097
376,0.0
407,22458205.7577692
2,1, 7,21, 0,11,30.00,45.00,SummerDesignDay
9,6493350.48670097
376,0.0
407,23686129.4324904
2,1, 7,21, 0,11,45.00,60.00,SummerDesignDay
9,6493350.48670097
376,0.0
407,25003461.036573
2,1, 7,21, 0,12, 0.00,15.00,SummerDesignDay
9,6493350.48670097
376,0.0
407,26051251.0109749
2,1, 7,21, 0,12,15.00,30.00,SummerDesignDay
9,6493350.48670097
376,0.0
407,27042178.0831751
2,1, 7,21, 0,12,30.00,45.00,SummerDesignDay
9,6493350.48670097
376,0.0
407,27971261.0810852
2,1, 7,21, 0,12,45.00,60.00,SummerDesignDay
9,6493350.48670097
376,0.0
407,28864119.4980672
2,1, 7,21, 0,13, 0.00,15.00,SummerDesignDay
9,6493350.48670097
376,0.0
407,29636302.557385
2,1, 7,21, 0,13,15.00,30.00,SummerDesignDay
9,6493350.48670097
376,0.0
407,30374520.7803827
2,1, 7,21, 0,13,30.00,45.00,SummerDesignDay
9,6493350.48670097
376,0.0
407,31094257.653209
2,1, 7,21, 0,13,45.00,60.00,SummerDesignDay
9,6493350.48670097
376,0.0
407,31804118.4732584
2,1, 7,21, 0,14, 0.00,15.00,SummerDesignDay
9,6493350.48670097
376,0.0
407,32384477.2335918
2,1, 7,21, 0,14,15.00,30.00,SummerDesignDay
9,6493350.48670097
376,0.0
407,32960039.664113
2,1, 7,21, 0,14,30.00,45.00,SummerDesignDay
9,6493350.48670097
376,0.0
407,33543748.9283455
2,1, 7,21, 0,14,45.00,60.00,SummerDesignDay
9,6493350.48670097
376,0.0
407,34133730.5349238
2,1, 7,21, 0,15, 0.00,15.00,SummerDesignDay
9,6493350.48670097
376,0.0
407,34517587.0762521
2,1, 7,21, 0,15,15.00,30.00,SummerDesignDay
9,6493350.48670097
376,0.0
407,34888555.7619549
2,1, 7,21, 0,15,30.00,45.00,SummerDesignDay
9,6493350.48670097
376,0.0
407,35274078.162502
2,1, 7,21, 0,15,45.00,60.00,SummerDesignDay
9,6493350.48670097
376,0.0
407,35631765.5438895
2,1, 7,21, 0,16, 0.00,15.00,SummerDesignDay
9,6493350.48670097
376,0.0
407,35723571.5297153
2,1, 7,21, 0,16,15.00,30.00,SummerDesignDay
9,6493350.48670097
376,0.0
407,35773310.6972427
2,1, 7,21, 0,16,30.00,45.00,SummerDesignDay
9,6493350.48670097
376,0.0
407,35865293.9828168
2,1, 7,21, 0,16,45.00,60.00,SummerDesignDay
9,6493350.48670097
376,0.0
407,36146355.9369867
2,1, 7,21, 0,17, 0.00,15.00,SummerDesignDay
9,6493350.48670097
376,0.0
407,36377522.6931674
2,1, 7,21, 0,17,15.00,30.00,SummerDesignDay
9,6493350.48670097
376,0.0
407,36547031.4575055
2,1, 7,21, 0,17,30.00,45.00,SummerDesignDay
9,6493350.48670097
376,0.0
407,36694228.6198536
2,1, 7,21, 0,17,45.00,60.00,SummerDesignDay
9,6493350.48670097
376,0.0
407,36734432.6116298
2,1, 7,21, 0,18, 0.00,15.00,SummerDesignDay
9,6493350.48670097
376,0.0
407,36407397.6449433
2,1, 7,21, 0,18,15.00,30.00,SummerDesignDay
9,6493350.48670097
376,0.0
407,36020795.0226773
2,1, 7,21, 0,18,30.00,45.00,SummerDesignDay
9,6493350.48670097
376,0.0
407,35530386.6523944
2,1, 7,21, 0,18,45.00,60.00,SummerDesignDay
9,6493350.48670097
376,0.0
407,34935603.9588087
2,1, 7,21, 0,19, 0.00,15.00,SummerDesignDay
9,6493350.48670097
376,0.0
407,33806875.6449684
2,1, 7,21, 0,19,15.00,30.00,SummerDesignDay
9,6493350.48670097
376,0.0
407,32548521.2732416
2,1, 7,21, 0,19,30.00,45.00,SummerDesignDay
9,6493350.48670097
376,0.0
407,31176911.6544645
2,1, 7,21, 0,19,45.00,60.00,SummerDesignDay
9,6493350.48670097
376,0.0
407,29706531.191424
2,1, 7,21, 0,20, 0.00,15.00,SummerDesignDay
9,6493350.48670097
376,0.0
407,28633626.7754132
2,1, 7,21, 0,20,15.00,30.00,SummerDesignDay
9,6493350.48670097
376,0.0
407,27833707.1695815
2,1, 7,21, 0,20,30.00,45.00,SummerDesignDay
9,6493350.48670097
376,0.0
407,27176441.5956685
2,1, 7,21, 0,20,45.00,60.00,SummerDesignDay
9,6493350.48670097
376,0.0
407,26491659.3406008
2,1, 7,21, 0,21, 0.00,15.00,SummerDesignDay
9,6493350.48670097
376,0.0
407,25835945.408623
2,1, 7,21, 0,21,15.00,30.00,SummerDesignDay
9,6493350.48670097
376,0.0
407,25120765.8193096
2,1, 7,21, 0,21,30.00,45.00,SummerDesignDay
9,6493350.48670097
376,0.0
407,24358072.253536
2,1, 7,21, 0,21,45.00,60.00,SummerDesignDay
9,6493350.48670097
376,0.0
407,23560889.1042072
2,1, 7,21, 0,22, 0.00,15.00,SummerDesignDay
9,6493350.48670097
376,0.0
407,22737979.8055101
2,1, 7,21, 0,22,15.00,30.00,SummerDesignDay
9,6493350.48670097
376,0.0
407,21895773.3744729
2,1, 7,21, 0,22,30.00,45.00,SummerDesignDay
9,6493350.48670097
376,0.0
407,21039415.272311
2,1, 7,21, 0,22,45.00,60.00,SummerDesignDay
9,6493350.48670097
376,0.0
407,20172966.0516627
2,1, 7,21, 0,23, 0.00,15.00,SummerDesignDay
9,6493350.48670097
376,0.0
407,758418.103521887
2,1, 7,21, 0,23,15.00,30.00,SummerDesignDay
9,6493350.48670097
376,0.0
407,1708182.70668781
2,1, 7,21, 0,23,30.00,45.00,SummerDesignDay
9,6493350.48670097
376,0.0
407,2198904.20341722
2,1, 7,21, 0,23,45.00,60.00,SummerDesignDay
9,6493350.48670097
376,0.0
407,2495154.74789298
2,1, 7,21, 0,24, 0.00,15.00,SummerDesignDay
9,6493350.48670097
376,0.0
407,2379599.69588726
2,1, 7,21, 0,24,15.00,30.00,SummerDesignDay
9,6493350.48670097
376,0.0
407,2361568.33603292
2,1, 7,21, 0,24,30.00,45.00,SummerDesignDay
9,6493350.48670097
376,0.0
407,2286878.35883834
2,1, 7,21, 0,24,45.00,60.00,SummerDesignDay
9,6493350.48670097
376,0.0
407,2211496.68562817
1,BEIJING ANN CLG .4% CONDNS ENTH=>MDB,   1.37, 103.98,   8.00,  16.00
2,1, 7,21, 0, 1, 0.00,15.00,SummerDesignDay
9,6493350.48670097
376,0.0
407,2614193.59386082
2,1, 7,21, 0, 1,15.00,30.00,SummerDesignDay
9,6493350.48670097
376,0.0
407,2532397.56192074
2,1, 7,21, 0, 1,30.00,45.00,SummerDesignDay
9,6493350.48670097
376,0.0
407,2446340.89098293
2,1, 7,21, 0, 1,45.00,60.00,SummerDesignDay
9,6493350.48670097
376,0.0
407,2362554.05009251
2,1, 7,21, 0, 2, 0.00,15.00,SummerDesignDay
9,6493350.48670097
376,0.0
407,2285290.44401713
2,1, 7,21, 0, 2,15.00,30.00,SummerDesignDay
9,6493350.48670097
376,0.0
407,2215810.52163879
2,1, 7,21, 0, 2,30.00,45.00,SummerDesignDay
9,6493350.48670097
376,0.0
407,2150511.90881551
2,1, 7,21, 0, 2,45.00,60.00,SummerDesignDay
9,6493350.48670097
376,0.0
407,2083174.22529274
2,1, 7,21, 0, 3, 0.00,15.00,SummerDesignDay
9,6493350.48670097
376,0.0
407,2015924.25616454
2,1, 7,21, 0, 3,15.00,30.00,SummerDesignDay
9,6493350.48670097
376,0.0
407,1947573.64341044
2,1, 7,21, 0, 3,30.00,45.00,SummerDesignDay
9,6493350.48670097
376,0.0
407,1878722.22631534
2,1, 7,21, 0, 3,45.00,60.00,SummerDesignDay
9,6493350.48670097
376,0.0
407,1808162.80085205
2,1, 7,21, 0, 4, 0.00,15.00,SummerDesignDay
9,6493350.48670097
376,0.0
407,1736435.53266072
2,1, 7,21, 0, 4,15.00,30.00,SummerDesignDay
9,6493350.48670097
376,0.0
407,1664673.51957823
2,1, 7,21, 0, 4,30.00,45.00,SummerDesignDay
9,6493350.48670097
376,0.0
407,1593420.1860234
2,1, 7,21, 0, 4,45.00,60.00,SummerDesignDay
9,6493350.48670097
376,0.0
407,1529438.15331837
2,1, 7,21, 0, 5, 0.00,15.00,SummerDesignDay
9,6493350.48670097
376,0.0
407,1468476.49875369
2,1, 7,21, 0, 5,15.00,30.00,SummerDesignDay
9,6493350.48670097
376,0.0
407,1409644.22761116
2,1, 7,21, 0, 5,30.00,45.00,SummerDesignDay
9,6493350.48670097
376,0.0
407,1355026.1989001
2,1, 7,21, 0, 5,45.00,60.00,SummerDesignDay
9,6493350.48670097
376,0.0
407,1297694.95668545
2,1, 7,21, 0, 6, 0.00,15.00,SummerDesignDay
9,6493350.48670097
376,0.0
407,1243071.58260736
2,1, 7,21, 0, 6,15.00,30.00,SummerDesignDay
9,6493350.48670097
376,0.0
407,1186338.80273239
2,1, 7,21, 0, 6,30.00,45.00,SummerDesignDay
9,6493350.48670097
376,0.0
407,1127832.84173173
2,1, 7,21, 0, 6,45.00,60.00,SummerDesignDay
9,6493350.48670097
376,0.0
407,1068931.49361052
2,1, 7,21, 0, 7, 0.00,15.00,SummerDesignDay
9,6493350.48670097
376,0.0
407,16060762.507151
2,1, 7,21, 0, 7,15.00,30.00,SummerDesignDay
9,6493350.48670097
376,0.0
407,1881335.58148524
2,1, 7,21, 0, 7,30.00,45.00,SummerDesignDay
9,6493350.48670097
376,0.0
407,11990830.1664313
2,1, 7,21, 0, 7,45.00,60.00,SummerDesignDay
9,6493350.48670097
376,0.0
407,9585045.14418092
2,1, 7,21, 0, 8, 0.00,15.00,SummerDesignDay
9,6493350.48670097
376,0.0
407,10031868.7904549
2,1, 7,21, 0, 8,15.00,30.00,SummerDesignDay
9,6493350.48670097
376,0.0
407,11065931.9040053
2,1, 7,21, 0, 8,30.00,45.00,SummerDesignDay
9,6493350.48670097
376,0.0
407,12685256.2296843
2,1, 7,21, 0, 8,45.00,60.00,SummerDesignDay
9,6493350.48670097
376,0.0
407,14400180.6440131
2,1, 7,21, 0, 9, 0.00,15.00,SummerDesignDay
9,6493350.48670097
376,0.0
407,16184346.4981967
2,1, 7,21, 0, 9,15.00,30.00,SummerDesignDay
9,6493350.48670097
376,0.0
407,17617816.6407095
2,1, 7,21, 0, 9,30.00,45.00,SummerDesignDay
9,6493350.48670097
376,0.0
407,18801053.1416587
2,1, 7,21, 0, 9,45.00,60.00,SummerDesignDay
9,6493350.48670097
376,0.0
407,20167590.1534
2,1, 7,21, 0,10, 0.00,15.00,SummerDesignDay
9,6493350.48670097
376,0.0
407,21500312.4443478
2,1, 7,21, 0,10,15.00,30.00,SummerDesignDay
9,6493350.48670097
376,0.0
407,22974375.2174351
2,1, 7,21, 0,10,30.00,45.00,SummerDesignDay
9,6493350.48670097
376,0.0
407,24326095.6819493
2,1, 7,21, 0,10,45.00,60.00,SummerDesignDay
9,6493350.48670097
376,0.0
407,25583667.9446315
2,1, 7,21, 0,11, 0.00,15.00,SummerDesignDay
9,6493350.48670097
376,0.0
407,26695641.8967795
2,1, 7,21, 0,11,15.00,30.00,SummerDesignDay
9,6493350.48670097
376,0.0
407,27764050.067181
2,1, 7,21, 0,11,30.00,45.00,SummerDesignDay
9,6493350.48670097
376,0.0
407,28982031.1904837
2,1, 7,21, 0,11,45.00,60.00,SummerDesignDay
9,6493350.48670097
376,0.0
407,30355193.3310838
2,1, 7,21, 0,12, 0.00,15.00,SummerDesignDay
9,6493350.48670097
376,0.0
407,31554316.053927
2,1, 7,21, 0,12,15.00,30.00,SummerDesignDay
9,6493350.48670097
376,0.0
407,32745914.9568181
2,1, 7,21, 0,12,30.00,45.00,SummerDesignDay
9,6493350.48670097
376,0.0
407,33899118.0740206
2,1, 7,21, 0,12,45.00,60.00,SummerDesignDay
9,6493350.48670097
376,0.0
407,35045590.4110484
2,1, 7,21, 0,13, 0.00,15.00,SummerDesignDay
9,6493350.48670097
376,0.0
407,36097776.5816184
2,1, 7,21, 0,13,15.00,30.00,SummerDesignDay
9,6493350.48670097
376,0.0
407,37131476.0278224
2,1, 7,21, 0,13,30.00,45.00,SummerDesignDay
9,6493350.48670097
376,0.0
407,38155423.6775139
2,1, 7,21, 0,13,45.00,60.00,SummerDesignDay
9,6493350.48670097
376,0.0
407,39175593.8431596
2,1, 7,21, 0,14, 0.00,15.00,SummerDesignDay
9,6493350.48670097
376,0.0
407,40062876.179293
2,1, 7,21, 0,14,15.00,30.00,SummerDesignDay
9,6493350.48670097
376,0.0
407,40928288.927758
2,1, 7,21, 0,14,30.00,45.00,SummerDesignDay
9,6493350.48670097
376,0.0
407,41778422.6507542
2,1, 7,21, 0,14,45.00,60.00,SummerDesignDay
9,6493350.48670097
376,0.0
407,42614120.9213022
2,1, 7,21, 0,15, 0.00,15.00,SummerDesignDay
9,6493350.48670097
376,0.0
407,43208052.5331481
2,1, 7,21, 0,15,15.00,30.00,SummerDesignDay
9,6493350.48670097
376,0.0
407,43743547.2218529
2,1, 7,21, 0,15,30.00,45.00,SummerDesignDay
9,6493350.48670097
376,0.0
407,44243064.4875875
2,1, 7,21, 0,15,45.00,60.00,SummerDesignDay
9,6493350.48670097
376,0.0
407,44677394.6651827
2,1, 7,21, 0,16, 0.00,15.00,SummerDesignDay
9,6493350.48670097
376,0.0
407,44791181.5354321
2,1, 7,21, 0,16,15.00,30.00,SummerDesignDay
9,6493350.48670097
376,0.0
407,44804325.6787982
2,1, 7,21, 0,16,30.00,45.00,SummerDesignDay
9,6493350.48670097
376,0.0
407,44743052.1056222
2,1, 7,21, 0,16,45.00,60.00,SummerDesignDay
9,6493350.48670097
376,0.0
407,44784815.5451084
2,1, 7,21, 0,17, 0.00,15.00,SummerDesignDay
9,6493350.48670097
376,0.0
407,44813443.5020531
2,1, 7,21, 0,17,15.00,30.00,SummerDesignDay
9,6493350.48670097
376,0.0
407,44784637.4587491
2,1, 7,21, 0,17,30.00,45.00,SummerDesignDay
9,6493350.48670097
376,0.0
407,44659995.3378454
2,1, 7,21, 0,17,45.00,60.00,SummerDesignDay
9,6493350.48670097
376,0.0
407,44424985.7305548
2,1, 7,21, 0,18, 0.00,15.00,SummerDesignDay
9,6493350.48670097
376,0.0
407,43800844.6301648
2,1, 7,21, 0,18,15.00,30.00,SummerDesignDay
9,6493350.48670097
376,0.0
407,43132740.4189467
2,1, 7,21, 0,18,30.00,45.00,SummerDesignDay
9,6493350.48670097
376,0.0
407,42370417.9594989
2,1, 7,21, 0,18,45.00,60.00,SummerDesignDay
9,6493350.48670097
376,0.0
407,41479975.1475008
2,1, 7,21, 0,19, 0.00,15.00,SummerDesignDay
9,6493350.48670097
376,0.0
407,40184459.4363893
2,1, 7,21, 0,19,15.00,30.00,SummerDesignDay
9,6493350.48670097
376,0.0
407,38703875.4939153
2,1, 7,21, 0,19,30.00,45.00,SummerDesignDay
9,6493350.48670097
376,0.0
407,37126285.0229361
2,1, 7,21, 0,19,45.00,60.00,SummerDesignDay
9,6493350.48670097
376,0.0
407,35495672.2088575
2,1, 7,21, 0,20, 0.00,15.00,SummerDesignDay
9,6493350.48670097
376,0.0
407,34350907.9303317
2,1, 7,21, 0,20,15.00,30.00,SummerDesignDay
9,6493350.48670097
376,0.0
407,33452179.2705688
2,1, 7,21, 0,20,30.00,45.00,SummerDesignDay
9,6493350.48670097
376,0.0
407,32607257.035918
2,1, 7,21, 0,20,45.00,60.00,SummerDesignDay
9,6493350.48670097
376,0.0
407,31753410.5870994
2,1, 7,21, 0,21, 0.00,15.00,SummerDesignDay
9,6493350.48670097
376,0.0
407,30942504.9179495
2,1, 7,21, 0,21,15.00,30.00,SummerDesignDay
9,6493350.48670097
376,0.0
407,30125357.1683505
2,1, 7,21, 0,21,30.00,45.00,SummerDesignDay
9,6493350.48670097
376,0.0
407,29302649.0652876
2,1, 7,21, 0,21,45.00,60.00,SummerDesignDay
9,6493350.48670097
376,0.0
407,28464431.1486561
2,1, 7,21, 0,22, 0.00,15.00,SummerDesignDay
9,6493350.48670097
376,0.0
407,27618925.3348919
2,1, 7,21, 0,22,15.00,30.00,SummerDesignDay
9,6493350.48670097
376,0.0
407,26774366.3406771
2,1, 7,21, 0,22,30.00,45.00,SummerDesignDay
9,6493350.48670097
376,0.0
407,25947199.9398059
2,1, 7,21, 0,22,45.00,60.00,SummerDesignDay
9,6493350.48670097
376,0.0
407,25093036.9171495
2,1, 7,21, 0,23, 0.00,15.00,SummerDesignDay
9,6493350.48670097
376,0.0
407,1185616.05305353
2,1, 7,21, 0,23,15.00,30.00,SummerDesignDay
9,6493350.48670097
376,0.0
407,2195314.1242826
2,1, 7,21, 0,23,30.00,45.00,SummerDesignDay
9,6493350.48670097
376,0.0
407,2650744.47632191
2,1, 7,21, 0,23,45.00,60.00,SummerDesignDay
9,6493350.48670097
376,0.0
407,2870350.41708898
2,1, 7,21, 0,24, 0.00,15.00,SummerDesignDay
9,6493350.48670097
376,0.0
407,2881637.58042166
2,1, 7,21, 0,24,15.00,30.00,SummerDesignDay
9,6493350.48670097
376,0.0
407,2843364.18975415
2,1, 7,21, 0,24,30.00,45.00,SummerDesignDay
9,6493350.48670097
376,0.0
407,2764341.90214218
2,1, 7,21, 0,24,45.00,60.00,SummerDesignDay
9,6493350.48670097
376,0.0
407,2690538.4122928
1,BEIJING ANN CLG .4% CONDNS WB=>MDB,   1.37, 103.98,   8.00,  16.00
2,1, 7,21, 0, 1, 0.00,15.00,SummerDesignDay
9,6493350.48670097
376,0.0
407,2748953.09533069
2,1, 7,21, 0, 1,15.00,30.00,SummerDesignDay
9,6493350.48670097
376,0.0
407,2666984.4351611
2,1, 7,21, 0, 1,30.00,45.00,SummerDesignDay
9,6493350.48670097
376,0.0
407,2580885.31939658
2,1, 7,21, 0, 1,45.00,60.00,SummerDesignDay
9,6493350.48670097
376,0.0
407,2499563.53067373
2,1, 7,21, 0, 2, 0.00,15.00,SummerDesignDay
9,6493350.48670097
376,0.0
407,2426030.52460037
2,1, 7,21, 0, 2,15.00,30.00,SummerDesignDay
9,6493350.48670097
376,0.0
407,2355279.30948511
2,1, 7,21, 0, 2,30.00,45.00,SummerDesignDay
9,6493350.48670097
376,0.0
407,2290274.98075604
2,1, 7,21, 0, 2,45.00,60.00,SummerDesignDay
9,6493350.48670097
376,0.0
407,2228426.79722572
2,1, 7,21, 0, 3, 0.00,15.00,SummerDesignDay
9,6493350.48670097
376,0.0
407,2164515.66776974
2,1, 7,21, 0, 3,15.00,30.00,SummerDesignDay
9,6493350.48670097
376,0.0
407,2098908.23054736
2,1, 7,21, 0, 3,30.00,45.00,SummerDesignDay
9,6493350.48670097
376,0.0
407,2032038.70289761
2,1, 7,21, 0, 3,45.00,60.00,SummerDesignDay
9,6493350.48670097
376,0.0
407,1964409.06418284
2,1, 7,21, 0, 4, 0.00,15.00,SummerDesignDay
9,6493350.48670097
376,0.0
407,1896695.96052315
2,1, 7,21, 0, 4,15.00,30.00,SummerDesignDay
9,6493350.48670097
376,0.0
407,1828499.73705169
2,1, 7,21, 0, 4,30.00,45.00,SummerDesignDay
9,6493350.48670097