Program Version,EnergyPlus, Version 8.5.0-c87e61b44b, YMD=2018.01.10 21:38
1,5,Environment Title[],Latitude[deg],Longitude[deg],Time Zone[],Elevation[m]
2,6,Day of Simulation[],Month[],Day of Month[],DST Indicator[1=yes 0=no],Hour[],StartMinute[],EndMinute[],DayType
3,3,Cumulative Day of Simulation[],Month[],Day of Month[],DST Indicator[1=yes 0=no],DayType  ! When Daily Meters Requested
4,2,Cumulative Days of Simulation[],Month[]  ! When Monthly Meters Requested
5,1,Cumulative Days of Simulation[] ! When Run Period Meters Requested
9,1,Electricity:Facility [J] !TimeStep
571,1,DistrictCooling:Facility [J] !TimeStep
540,1,DistrictHeating:Facility [J] !TimeStep
End of Data Dictionary
1,PIACENZA ANN CLG .4% CONDNS DB=>MWB,  44.92,   9.73,   1.00, 134.00
2,1, 8,21, 0, 1, 0.00,15.00,SummerDesignDay
9,8335141.67028333
540,0.0
571,0.0
2,1, 8,21, 0, 1,15.00,30.00,SummerDesignDay
9,8335141.67028333
540,0.0
571,0.0
2,1, 8,21, 0, 1,30.00,45.00,SummerDesignDay
9,8335141.67028333
540,0.0
571,0.0
2,1, 8,21, 0, 1,45.00,60.00,SummerDesignDay
9,8335141.67028333
540,0.0
571,0.0
2,1, 8,21, 0, 2, 0.00,15.00,SummerDesignDay
9,8335141.67028333
540,0.0
571,0.0
2,1, 8,21, 0, 2,15.00,30.00,SummerDesignDay
9,8335141.67028333
540,0.0
571,0.0
2,1, 8,21, 0, 2,30.00,45.00,SummerDesignDay
9,8335141.67028333
540,0.0
571,0.0
2,1, 8,21, 0, 2,45.00,60.00,SummerDesignDay
9,8335141.67028333
540,0.0
571,0.0
2,1, 8,21, 0, 3, 0.00,15.00,SummerDesignDay
9,8335141.67028333
540,0.0
571,0.0
2,1, 8,21, 0, 3,15.00,30.00,SummerDesignDay
9,8335141.67028333
540,0.0
571,0.0
2,1, 8,21, 0, 3,30.00,45.00,SummerDesignDay
9,8335141.67028333
540,0.0
571,0.0
2,1, 8,21, 0, 3,45.00,60.00,SummerDesignDay
9,8335141.67028333
540,0.0
571,0.0
2,1, 8,21, 0, 4, 0.00,15.00,SummerDesignDay
9,8335141.67028333
540,0.0
571,0.0
2,1, 8,21, 0, 4,15.00,30.00,SummerDesignDay
9,8335141.67028333
540,0.0
571,0.0
2,1, 8,21, 0, 4,30.00,45.00,SummerDesignDay
9,8335141.67028333
540,0.0
571,0.0
2,1, 8,21, 0, 4,45.00,60.00,SummerDesignDay
9,8335141.67028333
540,0.0
571,0.0
2,1, 8,21, 0, 5, 0.00,15.00,SummerDesignDay
9,8335141.67028333
540,0.0
571,0.0
2,1, 8,21, 0, 5,15.00,30.00,SummerDesignDay
9,8335141.67028333
540,0.0
571,0.0
2,1, 8,21, 0, 5,30.00,45.00,SummerDesignDay
9,8335141.67028333
540,0.0
571,0.0
2,1, 8,21, 0, 5,45.00,60.00,SummerDesignDay
9,8335141.67028333
540,0.0
571,0.0
2,1, 8,21, 0, 6, 0.00,15.00,SummerDesignDay
9,8335141.67028333
540,0.0
571,0.0
2,1, 8,21, 0, 6,15.00,30.00,SummerDesignDay
9,8335141.67028333
540,0.0
571,0.0
2,1, 8,21, 0, 6,30.00,45.00,SummerDesignDay
9,8335141.67028333
540,0.0
571,0.0
2,1, 8,21, 0, 6,45.00,60.00,SummerDesignDay
9,8335141.67028333
540,0.0
571,0.0
2,1, 8,21, 0, 7, 0.00,15.00,SummerDesignDay
9,8335141.67028333
540,0.0
571,16344464.0456969
2,1, 8,21, 0, 7,15.00,30.00,SummerDesignDay
9,8335141.67028333
540,0.0
571,2965344.91954558
2,1, 8,21, 0, 7,30.00,45.00,SummerDesignDay
9,8335141.67028333
540,0.0
571,13725252.2922799
2,1, 8,21, 0, 7,45.00,60.00,SummerDesignDay
9,8335141.67028333
540,0.0
571,11373257.112351
2,1, 8,21, 0, 8, 0.00,15.00,SummerDesignDay
9,8335141.67028333
540,0.0
571,12263004.5901521
2,1, 8,21, 0, 8,15.00,30.00,SummerDesignDay
9,8335141.67028333
540,0.0
571,13155240.9260247
2,1, 8,21, 0, 8,30.00,45.00,SummerDesignDay
9,8335141.67028333
540,0.0
571,13947543.9022308
2,1, 8,21, 0, 8,45.00,60.00,SummerDesignDay
9,8335141.67028333
540,0.0
571,14844397.8428005
2,1, 8,21, 0, 9, 0.00,15.00,SummerDesignDay
9,8335141.67028333
540,0.0
571,15702090.4205122
2,1, 8,21, 0, 9,15.00,30.00,SummerDesignDay
9,8335141.67028333
540,0.0
571,16515415.5582041
2,1, 8,21, 0, 9,30.00,45.00,SummerDesignDay
9,8335141.67028333
540,0.0
571,17384965.2865557
2,1, 8,21, 0, 9,45.00,60.00,SummerDesignDay
9,8335141.67028333
540,0.0
571,18296220.5103377
2,1, 8,21, 0,10, 0.00,15.00,SummerDesignDay
9,8335141.67028333
540,0.0
571,19160447.5993567
2,1, 8,21, 0,10,15.00,30.00,SummerDesignDay
9,8335141.67028333
540,0.0
571,20138301.283752
2,1, 8,21, 0,10,30.00,45.00,SummerDesignDay
9,8335141.67028333
540,0.0
571,21181811.2889422
2,1, 8,21, 0,10,45.00,60.00,SummerDesignDay
9,8335141.67028333
540,0.0
571,22241628.4829976
2,1, 8,21, 0,11, 0.00,15.00,SummerDesignDay
9,8335141.67028333
540,0.0
571,23226116.7685836
2,1, 8,21, 0,11,15.00,30.00,SummerDesignDay
9,8335141.67028333
540,0.0
571,24220060.4739382
2,1, 8,21, 0,11,30.00,45.00,SummerDesignDay
9,8335141.67028333
540,0.0
571,25182384.0364837
2,1, 8,21, 0,11,45.00,60.00,SummerDesignDay
9,8335141.67028333
540,0.0
571,26174373.0937465
2,1, 8,21, 0,12, 0.00,15.00,SummerDesignDay
9,8335141.67028333
540,0.0
571,27031248.374045
2,1, 8,21, 0,12,15.00,30.00,SummerDesignDay
9,8335141.67028333
540,0.0
571,27559721.4488379
2,1, 8,21, 0,12,30.00,45.00,SummerDesignDay
9,8335141.67028333
540,0.0
571,28084545.7852764
2,1, 8,21, 0,12,45.00,60.00,SummerDesignDay
9,8335141.67028333
540,0.0
571,28673579.7882264
2,1, 8,21, 0,13, 0.00,15.00,SummerDesignDay
9,8335141.67028333
540,0.0
571,29236434.9905686
2,1, 8,21, 0,13,15.00,30.00,SummerDesignDay
9,8335141.67028333
540,0.0
571,29867849.1274909
2,1, 8,21, 0,13,30.00,45.00,SummerDesignDay
9,8335141.67028333
540,0.0
571,30543369.4166894
2,1, 8,21, 0,13,45.00,60.00,SummerDesignDay
9,8335141.67028333
540,0.0
571,31034246.4377701
2,1, 8,21, 0,14, 0.00,15.00,SummerDesignDay
9,8335141.67028333
540,0.0
571,31321611.3414256
2,1, 8,21, 0,14,15.00,30.00,SummerDesignDay
9,8335141.67028333
540,0.0
571,31637851.4201829
2,1, 8,21, 0,14,30.00,45.00,SummerDesignDay
9,8335141.67028333
540,0.0
571,31969373.303799
2,1, 8,21, 0,14,45.00,60.00,SummerDesignDay
9,8335141.67028333
540,0.0
571,32338012.8973955
2,1, 8,21, 0,15, 0.00,15.00,SummerDesignDay
9,8335141.67028333
540,0.0
571,32595938.7792268
2,1, 8,21, 0,15,15.00,30.00,SummerDesignDay
9,8335141.67028333
540,0.0
571,32885889.3403529
2,1, 8,21, 0,15,30.00,45.00,SummerDesignDay
9,8335141.67028333
540,0.0
571,33191352.6878743
2,1, 8,21, 0,15,45.00,60.00,SummerDesignDay
9,8335141.67028333
540,0.0
571,33502363.2783997
2,1, 8,21, 0,16, 0.00,15.00,SummerDesignDay
9,8335141.67028333
540,0.0
571,33548750.5457609
2,1, 8,21, 0,16,15.00,30.00,SummerDesignDay
9,8335141.67028333
540,0.0
571,33563398.1323685
2,1, 8,21, 0,16,30.00,45.00,SummerDesignDay
9,8335141.67028333
540,0.0
571,33571813.8564602
2,1, 8,21, 0,16,45.00,60.00,SummerDesignDay
9,8335141.67028333
540,0.0
571,33586264.9833012
2,1, 8,21, 0,17, 0.00,15.00,SummerDesignDay
9,8335141.67028333
540,0.0
571,33492305.7765859
2,1, 8,21, 0,17,15.00,30.00,SummerDesignDay
9,8335141.67028333
540,0.0
571,33351528.6003005
2,1, 8,21, 0,17,30.00,45.00,SummerDesignDay
9,8335141.67028333
540,0.0
571,33157781.662047
2,1, 8,21, 0,17,45.00,60.00,SummerDesignDay
9,8335141.67028333
540,0.0
571,32832007.6377529
2,1, 8,21, 0,18, 0.00,15.00,SummerDesignDay
9,8335141.67028333
540,0.0
571,32386714.7351881
2,1, 8,21, 0,18,15.00,30.00,SummerDesignDay
9,8335141.67028333
540,0.0
571,31880435.3487512
2,1, 8,21, 0,18,30.00,45.00,SummerDesignDay
9,8335141.67028333
540,0.0
571,31302879.960348
2,1, 8,21, 0,18,45.00,60.00,SummerDesignDay
9,8335141.67028333
540,0.0
571,30661191.5601361
2,1, 8,21, 0,19, 0.00,15.00,SummerDesignDay
9,8335141.67028333
540,0.0
571,29721664.537916
2,1, 8,21, 0,19,15.00,30.00,SummerDesignDay
9,8335141.67028333
540,0.0
571,28565646.6786001
2,1, 8,21, 0,19,30.00,45.00,SummerDesignDay
9,8335141.67028333
540,0.0
571,27333375.843269
2,1, 8,21, 0,19,45.00,60.00,SummerDesignDay
9,8335141.67028333
540,0.0
571,25875339.1193811
2,1, 8,21, 0,20, 0.00,15.00,SummerDesignDay
9,8335141.67028333
540,0.0
571,24554833.2203822
2,1, 8,21, 0,20,15.00,30.00,SummerDesignDay
9,8335141.67028333
540,0.0
571,23572507.1261385
2,1, 8,21, 0,20,30.00,45.00,SummerDesignDay
9,8335141.67028333
540,0.0
571,22796793.9654167
2,1, 8,21, 0,20,45.00,60.00,SummerDesignDay
9,8335141.67028333
540,0.0
571,22059388.138476
2,1, 8,21, 0,21, 0.00,15.00,SummerDesignDay
9,8335141.67028333
540,0.0
571,21418816.7445745
2,1, 8,21, 0,21,15.00,30.00,SummerDesignDay
9,8335141.67028333
540,0.0
571,20795362.4035872
2,1, 8,21, 0,21,30.00,45.00,SummerDesignDay
9,8335141.67028333
540,0.0
571,20186771.1300643
2,1, 8,21, 0,21,45.00,60.00,SummerDesignDay
9,8335141.67028333
540,0.0
571,19585760.447296
2,1, 8,21, 0,22, 0.00,15.00,SummerDesignDay
9,8335141.67028333
540,0.0
571,18986465.7270125
2,1, 8,21, 0,22,15.00,30.00,SummerDesignDay
9,8335141.67028333
540,0.0
571,18392889.8075167
2,1, 8,21, 0,22,30.00,45.00,SummerDesignDay
9,8335141.67028333
540,0.0
571,17807093.7441892
2,1, 8,21, 0,22,45.00,60.00,SummerDesignDay
9,8335141.67028333
540,0.0
571,17199642.3271398
2,1, 8,21, 0,23, 0.00,15.00,SummerDesignDay
9,8335141.67028333
540,0.0
571,0.0
2,1, 8,21, 0,23,15.00,30.00,SummerDesignDay
9,8335141.67028333
540,0.0
571,0.0
2,1, 8,21, 0,23,30.00,45.00,SummerDesignDay
9,8335141.67028333
540,0.0
571,0.0
2,1, 8,21, 0,23,45.00,60.00,SummerDesignDay
9,8335141.67028333
540,0.0
571,0.0
2,1, 8,21, 0,24, 0.00,15.00,SummerDesignDay
9,8335141.67028333
540,0.0
571,0.0
2,1, 8,21, 0,24,15.00,30.00,SummerDesignDay
9,8335141.67028333
540,0.0
571,0.0
2,1, 8,21, 0,24,30.00,45.00,SummerDesignDay
9,8335141.67028333
540,0.0
571,0.0
2,1, 8,21, 0,24,45.00,60.00,SummerDesignDay
9,8335141.67028333
540,0.0
571,0.0
1,PIACENZA ANN CLG .4% CONDNS DP=>MDB,  44.92,   9.73,   1.00, 134.00
2,1, 8,21, 0, 1, 0.00,15.00,SummerDesignDay
9,8335141.67028333
540,0.0
571,0.0
2,1, 8,21, 0, 1,15.00,30.00,SummerDesignDay
9,8335141.67028333
540,0.0
571,0.0
2,1, 8,21, 0, 1,30.00,45.00,SummerDesignDay
9,8335141.67028333
540,0.0
571,0.0
2,1, 8,21, 0, 1,45.00,60.00,SummerDesignDay
9,8335141.67028333
540,0.0
571,0.0
2,1, 8,21, 0, 2, 0.00,15.00,SummerDesignDay
9,8335141.67028333
540,0.0
571,0.0
2,1, 8,21, 0, 2,15.00,30.00,SummerDesignDay
9,8335141.67028333
540,0.0
571,0.0
2,1, 8,21, 0, 2,30.00,45.00,SummerDesignDay
9,8335141.67028333
540,0.0
571,0.0
2,1, 8,21, 0, 2,45.00,60.00,SummerDesignDay
9,8335141.67028333
540,0.0
571,0.0
2,1, 8,21, 0, 3, 0.00,15.00,SummerDesignDay
9,8335141.67028333
540,0.0
571,0.0
2,1, 8,21, 0, 3,15.00,30.00,SummerDesignDay
9,8335141.67028333
540,0.0
571,0.0
2,1, 8,21, 0, 3,30.00,45.00,SummerDesignDay
9,8335141.67028333
540,0.0
571,0.0
2,1, 8,21, 0, 3,45.00,60.00,SummerDesignDay
9,8335141.67028333
540,0.0
571,0.0
2,1, 8,21, 0, 4, 0.00,15.00,SummerDesignDay
9,8335141.67028333
540,0.0
571,0.0
2,1, 8,21, 0, 4,15.00,30.00,SummerDesignDay
9,8335141.67028333
540,0.0
571,0.0
2,1, 8,21, 0, 4,30.00,45.00,SummerDesignDay
9,8335141.67028333
540,0.0
571,0.0
2,1, 8,21, 0, 4,45.00,60.00,SummerDesignDay
9,8335141.67028333
540,0.0
571,0.0
2,1, 8,21, 0, 5, 0.00,15.00,SummerDesignDay
9,8335141.67028333
540,0.0
571,0.0
2,1, 8,21, 0, 5,15.00,30.00,SummerDesignDay
9,8335141.67028333
540,0.0
571,0.0
2,1, 8,21, 0, 5,30.00,45.00,SummerDesignDay
9,8335141.67028333
540,0.0
571,0.0
2,1, 8,21, 0, 5,45.00,60.00,SummerDesignDay
9,8335141.67028333
540,0.0
571,0.0
2,1, 8,21, 0, 6, 0.00,15.00,SummerDesignDay
9,8335141.67028333
540,0.0
571,0.0
2,1, 8,21, 0, 6,15.00,30.00,SummerDesignDay
9,8335141.67028333
540,0.0
571,0.0
2,1, 8,21, 0, 6,30.00,45.00,SummerDesignDay
9,8335141.67028333
540,0.0
571,0.0
2,1, 8,21, 0, 6,45.00,60.00,SummerDesignDay
9,8335141.67028333
540,0.0
571,0.0
2,1, 8,21, 0, 7, 0.00,15.00,SummerDesignDay
9,8335141.67028333
540,0.0
571,0.0
2,1, 8,21, 0, 7,15.00,30.00,SummerDesignDay
9,8335141.67028333
540,0.0
571,0.0
2,1, 8,21, 0, 7,30.00,45.00,SummerDesignDay
9,8335141.67028333
540,0.0
571,0.0
2,1, 8,21, 0, 7,45.00,60.00,SummerDesignDay
9,8335141.67028333
540,0.0
571,0.0
2,1, 8,21, 0, 8, 0.00,15.00,SummerDesignDay
9,8335141.67028333
540,0.0
571,0.0
2,1, 8,21, 0, 8,15.00,30.00,SummerDesignDay
9,8335141.67028333
540,0.0
571,0.0
2,1, 8,21, 0, 8,30.00,45.00,SummerDesignDay
9,8335141.67028333
540,0.0
571,0.0
2,1, 8,21, 0, 8,45.00,60.00,SummerDesignDay
9,8335141.67028333
540,0.0
571,0.0
2,1, 8,21, 0, 9, 0.00,15.00,SummerDesignDay
9,8335141.67028333
540,0.0
571,0.0
2,1, 8,21, 0, 9,15.00,30.00,SummerDesignDay
9,8335141.67028333
540,0.0
571,0.0
2,1, 8,21, 0, 9,30.00,45.00,SummerDesignDay
9,8335141.67028333
540,0.0
571,0.0
2,1, 8,21, 0, 9,45.00,60.00,SummerDesignDay
9,8335141.67028333
540,0.0
571,0.0
2,1, 8,21, 0,10, 0.00,15.00,SummerDesignDay
9,8335141.67028333
540,0.0
571,0.0
2,1, 8,21, 0,10,15.00,30.00,SummerDesignDay
9,8335141.67028333
540,0.0
571,0.0
2,1, 8,21, 0,10,30.00,45.00,SummerDesignDay
9,8335141.67028333
540,0.0
571,2451940.50644633
2,1, 8,21, 0,10,45.00,60.00,SummerDesignDay
9,8335141.67028333
540,0.0
571,4161643.96821861
2,1, 8,21, 0,11, 0.00,15.00,SummerDesignDay
9,8335141.67028333
540,0.0
571,5448877.47190436
2,1, 8,21, 0,11,15.00,30.00,SummerDesignDay
9,8335141.67028333
540,0.0
571,7135311.75183317
2,1, 8,21, 0,11,30.00,45.00,SummerDesignDay
9,8335141.67028333
540,0.0
571,8782369.63627609
2,1, 8,21, 0,11,45.00,60.00,SummerDesignDay
9,8335141.67028333
540,0.0
571,10360145.0643018
2,1, 8,21, 0,12, 0.00,15.00,SummerDesignDay
9,8335141.67028333
540,0.0
571,11606777.7273734
2,1, 8,21, 0,12,15.00,30.00,SummerDesignDay
9,8335141.67028333
540,0.0
571,13442642.5912892
2,1, 8,21, 0,12,30.00,45.00,SummerDesignDay
9,8335141.67028333
540,0.0
571,14795749.4186882
2,1, 8,21, 0,12,45.00,60.00,SummerDesignDay
9,8335141.67028333
540,0.0
571,16062951.4739273
2,1, 8,21, 0,13, 0.00,15.00,SummerDesignDay
9,8335141.67028333
540,0.0
571,17038122.638574
2,1, 8,21, 0,13,15.00,30.00,SummerDesignDay
9,8335141.67028333
540,0.0
571,17903826.9434919
2,1, 8,21, 0,13,30.00,45.00,SummerDesignDay
9,8335141.67028333
540,0.0
571,18762077.7042735
2,1, 8,21, 0,13,45.00,60.00,SummerDesignDay
9,8335141.67028333
540,0.0
571,19532575.9149949
2,1, 8,21, 0,14, 0.00,15.00,SummerDesignDay
9,8335141.67028333
540,0.0
571,20086323.1151175
2,1, 8,21, 0,14,15.00,30.00,SummerDesignDay
9,8335141.67028333
540,0.0
571,20589033.4748678
2,1, 8,21, 0,14,30.00,45.00,SummerDesignDay
9,8335141.67028333
540,0.0
571,21026407.9037399
2,1, 8,21, 0,14,45.00,60.00,SummerDesignDay
9,8335141.67028333
540,0.0
571,21425630.3027866
2,1, 8,21, 0,15, 0.00,15.00,SummerDesignDay
9,8335141.67028333
540,0.0
571,21637456.5163041
2,1, 8,21, 0,15,15.00,30.00,SummerDesignDay
9,8335141.67028333
540,0.0
571,21872321.2263342
2,1, 8,21, 0,15,30.00,45.00,SummerDesignDay
9,8335141.67028333
540,0.0
571,22137849.6830402
2,1, 8,21, 0,15,45.00,60.00,SummerDesignDay
9,8335141.67028333
540,0.0
571,22410674.5698747
2,1, 8,21, 0,16, 0.00,15.00,SummerDesignDay
9,8335141.67028333
540,0.0
571,22398184.0934678
2,1, 8,21, 0,16,15.00,30.00,SummerDesignDay
9,8335141.67028333
540,0.0
571,22368896.1419948
2,1, 8,21, 0,16,30.00,45.00,SummerDesignDay
9,8335141.67028333
540,0.0
571,22355541.167217
2,1, 8,21, 0,16,45.00,60.00,SummerDesignDay
9,8335141.67028333
540,0.0
571,22374278.5183909
2,1, 8,21, 0,17, 0.00,15.00,SummerDesignDay
9,8335141.67028333
540,0.0
571,22278891.8030569
2,1, 8,21, 0,17,15.00,30.00,SummerDesignDay
9,8335141.67028333
540,0.0
571,22145897.4307145
2,1, 8,21, 0,17,30.00,45.00,SummerDesignDay
9,8335141.67028333
540,0.0
571,21966272.7996031
2,1, 8,21, 0,17,45.00,60.00,SummerDesignDay
9,8335141.67028333
540,0.0
571,21685090.7243791
2,1, 8,21, 0,18, 0.00,15.00,SummerDesignDay
9,8335141.67028333
540,0.0
571,21285756.8592344
2,1, 8,21, 0,18,15.00,30.00,SummerDesignDay
9,8335141.67028333
540,0.0
571,20826899.7220798
2,1, 8,21, 0,18,30.00,45.00,SummerDesignDay
9,8335141.67028333
540,0.0
571,20282330.9898871
2,1, 8,21, 0,18,45.00,60.00,SummerDesignDay
9,8335141.67028333
540,0.0
571,19676319.7071982
2,1, 8,21, 0,19, 0.00,15.00,SummerDesignDay
9,8335141.67028333
540,0.0
571,18714194.9698709
2,1, 8,21, 0,19,15.00,30.00,SummerDesignDay
9,8335141.67028333
540,0.0
571,17507071.5324786
2,1, 8,21, 0,19,30.00,45.00,SummerDesignDay
9,8335141.67028333
540,0.0
571,16188053.8286226
2,1, 8,21, 0,19,45.00,60.00,SummerDesignDay
9,8335141.67028333
540,0.0
571,14574797.8352975
2,1, 8,21, 0,20, 0.00,15.00,SummerDesignDay
9,8335141.67028333
540,0.0
571,13066307.4458525
2,1, 8,21, 0,20,15.00,30.00,SummerDesignDay
9,8335141.67028333
540,0.0
571,11882848.1837816
2,1, 8,21, 0,20,30.00,45.00,SummerDesignDay
9,8335141.67028333
540,0.0
571,10887178.0726795
2,1, 8,21, 0,20,45.00,60.00,SummerDesignDay
9,8335141.67028333
540,0.0
571,10122839.6595712
2,1, 8,21, 0,21, 0.00,15.00,SummerDesignDay
9,8335141.67028333
540,0.0
571,9433915.39209254
2,1, 8,21, 0,21,15.00,30.00,SummerDesignDay
9,8335141.67028333
540,0.0
571,8771252.78504537
2,1, 8,21, 0,21,30.00,45.00,SummerDesignDay
9,8335141.67028333
540,0.0
571,8077134.94051796
2,1, 8,21, 0,21,45.00,60.00,SummerDesignDay
9,8335141.67028333
540,0.0
571,7355055.32451599
2,1, 8,21, 0,22, 0.00,15.00,SummerDesignDay
9,8335141.67028333
540,0.0
571,6627803.56696329
2,1, 8,21, 0,22,15.00,30.00,SummerDesignDay
9,8335141.67028333
540,0.0
571,5867083.71671451
2,1, 8,21, 0,22,30.00,45.00,SummerDesignDay
9,8335141.67028333
540,0.0
571,5076723.15498283
2,1, 8,21, 0,22,45.00,60.00,SummerDesignDay
9,8335141.67028333
540,0.0
571,4267585.02790068
2,1, 8,21, 0,23, 0.00,15.00,SummerDesignDay
9,8335141.67028333
540,0.0
571,0.0
2,1, 8,21, 0,23,15.00,30.00,SummerDesignDay
9,8335141.67028333
540,0.0
571,0.0
2,1, 8,21, 0,23,30.00,45.00,SummerDesignDay
9,8335141.67028333
540,0.0
571,0.0
2,1, 8,21, 0,23,45.00,60.00,SummerDesignDay
9,8335141.67028333
540,0.0
571,0.0
2,1, 8,21, 0,24, 0.00,15.00,SummerDesignDay
9,8335141.67028333
540,0.0
571,0.0
2,1, 8,21, 0,24,15.00,30.00,SummerDesignDay
9,8335141.67028333
540,0.0
571,0.0
2,1, 8,21, 0,24,30.00,45.00,SummerDesignDay
9,8335141.67028333
540,0.0
571,0.0
2,1, 8,21, 0,24,45.00,60.00,SummerDesignDay
9,8335141.67028333
540,0.0
571,0.0
1,PIACENZA ANN CLG .4% CONDNS ENTH=>MDB,  44.92,   9.73,   1.00, 134.00
2,1, 8,21, 0, 1, 0.00,15.00,SummerDesignDay
9,8335141.67028333
540,0.0
571,0.0
2,1, 8,21, 0, 1,15.00,30.00,SummerDesignDay
9,8335141.67028333
540,0.0
571,0.0
2,1, 8,21, 0, 1,30.00,45.00,SummerDesignDay
9,8335141.67028333
540,0.0
571,0.0
2,1, 8,21, 0, 1,45.00,60.00,SummerDesignDay
9,8335141.67028333
540,0.0
571,0.0
2,1, 8,21, 0, 2, 0.00,15.00,SummerDesignDay
9,8335141.67028333
540,0.0
571,0.0
2,1, 8,21, 0, 2,15.00,30.00,SummerDesignDay
9,8335141.67028333
540,0.0
571,0.0
2,1, 8,21, 0, 2,30.00,45.00,SummerDesignDay
9,8335141.67028333
540,0.0
571,0.0
2,1, 8,21, 0, 2,45.00,60.00,SummerDesignDay
9,8335141.67028333
540,0.0
571,0.0
2,1, 8,21, 0, 3, 0.00,15.00,SummerDesignDay
9,8335141.67028333
540,0.0
571,0.0
2,1, 8,21, 0, 3,15.00,30.00,SummerDesignDay
9,8335141.67028333
540,0.0
571,0.0
2,1, 8,21, 0, 3,30.00,45.00,SummerDesignDay
9,8335141.67028333
540,0.0
571,0.0
2,1, 8,21, 0, 3,45.00,60.00,SummerDesignDay
9,8335141.67028333
540,0.0
571,0.0
2,1, 8,21, 0, 4, 0.00,15.00,SummerDesignDay
9,8335141.67028333
540,0.0
571,0.0
2,1, 8,21, 0, 4,15.00,30.00,SummerDesignDay
9,8335141.67028333
540,0.0
571,0.0
2,1, 8,21, 0, 4,30.00,45.00,SummerDesignDay
9,8335141.67028333
540,0.0
571,0.0
2,1, 8,21, 0, 4,45.00,60.00,SummerDesignDay
9,8335141.67028333
540,0.0
571,0.0
2,1, 8,21, 0, 5, 0.00,15.00,SummerDesignDay
9,8335141.67028333
540,0.0
571,0.0
2,1, 8,21, 0, 5,15.00,30.00,SummerDesignDay
9,8335141.67028333
540,0.0
571,0.0
2,1, 8,21, 0, 5,30.00,45.00,SummerDesignDay
9,8335141.67028333
540,0.0
571,0.0
2,1, 8,21, 0, 5,45.00,60.00,SummerDesignDay
9,8335141.67028333
540,0.0
571,0.0
2,1, 8,21, 0, 6, 0.00,15.00,SummerDesignDay
9,8335141.67028333
540,0.0
571,0.0
2,1, 8,21, 0, 6,15.00,30.00,SummerDesignDay
9,8335141.67028333
540,0.0
571,0.0
2,1, 8,21, 0, 6,30.00,45.00,SummerDesignDay
9,8335141.67028333
540,0.0
571,0.0
2,1, 8,21, 0, 6,45.00,60.00,SummerDesignDay
9,8335141.67028333
540,0.0
571,0.0
2,1, 8,21, 0, 7, 0.00,15.00,SummerDesignDay
9,8335141.67028333
540,0.0
571,0.0
2,1, 8,21, 0, 7,15.00,30.00,SummerDesignDay
9,8335141.67028333
540,0.0
571,0.0
2,1, 8,21, 0, 7,30.00,45.00,SummerDesignDay
9,8335141.67028333
540,0.0
571,0.0
2,1, 8,21, 0, 7,45.00,60.00,SummerDesignDay
9,8335141.67028333
540,0.0
571,452504.946104431
2,1, 8,21, 0, 8, 0.00,15.00,SummerDesignDay
9,8335141.67028333
540,0.0
571,1574803.73341733
2,1, 8,21, 0, 8,15.00,30.00,SummerDesignDay
9,8335141.67028333
540,0.0
571,3946272.29343431
2,1, 8,21, 0, 8,30.00,45.00,SummerDesignDay
9,8335141.67028333
540,0.0
571,5594615.40324158
2,1, 8,21, 0, 8,45.00,60.00,SummerDesignDay
9,8335141.67028333
540,0.0
571,7309495.37187759
2,1, 8,21, 0, 9, 0.00,15.00,SummerDesignDay
9,8335141.67028333
540,0.0
571,9043747.04821536
2,1, 8,21, 0, 9,15.00,30.00,SummerDesignDay
9,8335141.67028333
540,0.0
571,10542985.8179832
2,1, 8,21, 0, 9,30.00,45.00,SummerDesignDay
9,8335141.67028333
540,0.0
571,11894717.0706066
2,1, 8,21, 0, 9,45.00,60.00,SummerDesignDay
9,8335141.67028333
540,0.0
571,13125226.173334
2,1, 8,21, 0,10, 0.00,15.00,SummerDesignDay
9,8335141.67028333
540,0.0
571,15005404.1058237
2,1, 8,21, 0,10,15.00,30.00,SummerDesignDay
9,8335141.67028333
540,0.0
571,16345626.672476
2,1, 8,21, 0,10,30.00,45.00,SummerDesignDay
9,8335141.67028333
540,0.0
571,17851841.4537106
2,1, 8,21, 0,10,45.00,60.00,SummerDesignDay
9,8335141.67028333
540,0.0
571,19206027.75737
2,1, 8,21, 0,11, 0.00,15.00,SummerDesignDay
9,8335141.67028333
540,0.0
571,20564134.8333841
2,1, 8,21, 0,11,15.00,30.00,SummerDesignDay
9,8335141.67028333
540,0.0
571,21921749.7309758
2,1, 8,21, 0,11,30.00,45.00,SummerDesignDay
9,8335141.67028333
540,0.0
571,23289264.9734134
2,1, 8,21, 0,11,45.00,60.00,SummerDesignDay
9,8335141.67028333
540,0.0
571,24741364.760384
2,1, 8,21, 0,12, 0.00,15.00,SummerDesignDay
9,8335141.67028333
540,0.0
571,26002927.1614434
2,1, 8,21, 0,12,15.00,30.00,SummerDesignDay
9,8335141.67028333
540,0.0
571,27273400.8315523
2,1, 8,21, 0,12,30.00,45.00,SummerDesignDay
9,8335141.67028333
540,0.0
571,28541272.662642
2,1, 8,21, 0,12,45.00,60.00,SummerDesignDay
9,8335141.67028333
540,0.0
571,29811724.2925241
2,1, 8,21, 0,13, 0.00,15.00,SummerDesignDay
9,8335141.67028333
540,0.0
571,30947302.9575893
2,1, 8,21, 0,13,15.00,30.00,SummerDesignDay
9,8335141.67028333
540,0.0
571,32062661.0262452
2,1, 8,21, 0,13,30.00,45.00,SummerDesignDay
9,8335141.67028333
540,0.0
571,33190330.1513516
2,1, 8,21, 0,13,45.00,60.00,SummerDesignDay
9,8335141.67028333
540,0.0
571,34297791.2883293
2,1, 8,21, 0,14, 0.00,15.00,SummerDesignDay
9,8335141.67028333
540,0.0
571,35171421.5736962
2,1, 8,21, 0,14,15.00,30.00,SummerDesignDay
9,8335141.67028333
540,0.0
571,36017828.654923
2,1, 8,21, 0,14,30.00,45.00,SummerDesignDay
9,8335141.67028333
540,0.0
571,36796215.1284435
2,1, 8,21, 0,14,45.00,60.00,SummerDesignDay
9,8335141.67028333
540,0.0
571,37560081.7276404
2,1, 8,21, 0,15, 0.00,15.00,SummerDesignDay
9,8335141.67028333
540,0.0
571,38092031.7136344
2,1, 8,21, 0,15,15.00,30.00,SummerDesignDay
9,8335141.67028333
540,0.0
571,38611599.5977366
2,1, 8,21, 0,15,30.00,45.00,SummerDesignDay
9,8335141.67028333
540,0.0
571,39092804.8380742
2,1, 8,21, 0,15,45.00,60.00,SummerDesignDay
9,8335141.67028333
540,0.0
571,39535492.3628103
2,1, 8,21, 0,16, 0.00,15.00,SummerDesignDay
9,8335141.67028333
540,0.0
571,39532458.0431455
2,1, 8,21, 0,16,15.00,30.00,SummerDesignDay
9,8335141.67028333
540,0.0
571,39433442.4547281
2,1, 8,21, 0,16,30.00,45.00,SummerDesignDay
9,8335141.67028333
540,0.0
571,39275410.8878443
2,1, 8,21, 0,16,45.00,60.00,SummerDesignDay
9,8335141.67028333
540,0.0
571,39090884.6511598
2,1, 8,21, 0,17, 0.00,15.00,SummerDesignDay
9,8335141.67028333
540,0.0
571,38723633.080382
2,1, 8,21, 0,17,15.00,30.00,SummerDesignDay
9,8335141.67028333
540,0.0
571,38274450.472756
2,1, 8,21, 0,17,30.00,45.00,SummerDesignDay
9,8335141.67028333
540,0.0
571,37740879.8154675
2,1, 8,21, 0,17,45.00,60.00,SummerDesignDay
9,8335141.67028333
540,0.0
571,37027122.327725
2,1, 8,21, 0,18, 0.00,15.00,SummerDesignDay
9,8335141.67028333
540,0.0
571,36152110.0699367
2,1, 8,21, 0,18,15.00,30.00,SummerDesignDay
9,8335141.67028333
540,0.0
571,35203442.8140408
2,1, 8,21, 0,18,30.00,45.00,SummerDesignDay
9,8335141.67028333
540,0.0
571,34168908.284374
2,1, 8,21, 0,18,45.00,60.00,SummerDesignDay
9,8335141.67028333
540,0.0
571,33065221.2346247
2,1, 8,21, 0,19, 0.00,15.00,SummerDesignDay
9,8335141.67028333
540,0.0
571,31568805.9243227
2,1, 8,21, 0,19,15.00,30.00,SummerDesignDay
9,8335141.67028333
540,0.0
571,29802712.3835312
2,1, 8,21, 0,19,30.00,45.00,SummerDesignDay
9,8335141.67028333
540,0.0
571,27959618.1025188
2,1, 8,21, 0,19,45.00,60.00,SummerDesignDay
9,8335141.67028333
540,0.0
571,25894048.0096664
2,1, 8,21, 0,20, 0.00,15.00,SummerDesignDay
9,8335141.67028333
540,0.0
571,24074075.2138335
2,1, 8,21, 0,20,15.00,30.00,SummerDesignDay
9,8335141.67028333
540,0.0
571,22700369.3113821
2,1, 8,21, 0,20,30.00,45.00,SummerDesignDay
9,8335141.67028333
540,0.0
571,21529048.4122706
2,1, 8,21, 0,20,45.00,60.00,SummerDesignDay
9,8335141.67028333
540,0.0
571,20399353.0320615
2,1, 8,21, 0,21, 0.00,15.00,SummerDesignDay
9,8335141.67028333
540,0.0
571,19403516.1207029
2,1, 8,21, 0,21,15.00,30.00,SummerDesignDay
9,8335141.67028333
540,0.0
571,18444437.2454742
2,1, 8,21, 0,21,30.00,45.00,SummerDesignDay
9,8335141.67028333
540,0.0
571,17503601.6751345
2,1, 8,21, 0,21,45.00,60.00,SummerDesignDay
9,8335141.67028333
540,0.0
571,16565235.41839
2,1, 8,21, 0,22, 0.00,15.00,SummerDesignDay
9,8335141.67028333
540,0.0
571,15620264.2236251
2,1, 8,21, 0,22,15.00,30.00,SummerDesignDay
9,8335141.67028333
540,0.0
571,14681221.1749958
2,1, 8,21, 0,22,30.00,45.00,SummerDesignDay
9,8335141.67028333
540,0.0
571,13748444.5349474
2,1, 8,21, 0,22,45.00,60.00,SummerDesignDay
9,8335141.67028333
540,0.0
571,12829254.6690467
2,1, 8,21, 0,23, 0.00,15.00,SummerDesignDay
9,8335141.67028333
540,0.0
571,0.0
2,1, 8,21, 0,23,15.00,30.00,SummerDesignDay
9,8335141.67028333
540,0.0
571,0.0
2,1, 8,21, 0,23,30.00,45.00,SummerDesignDay
9,8335141.67028333
540,0.0
571,0.0
2,1, 8,21, 0,23,45.00,60.00,SummerDesignDay
9,8335141.67028333
540,0.0
571,0.0
2,1, 8,21, 0,24, 0.00,15.00,SummerDesignDay
9,8335141.67028333
540,0.0
571,0.0
2,1, 8,21, 0,24,15.00,30.00,SummerDesignDay
9,8335141.67028333
540,0.0
571,0.0
2,1, 8,21, 0,24,30.00,45.00,SummerDesignDay
9,8335141.67028333
540,0.0
571,0.0
2,1, 8,21, 0,24,45.00,60.00,SummerDesignDay
9,8335141.67028333
540,0.0
571,0.0
1,PIACENZA ANN CLG .4% CONDNS WB=>MDB,  44.92,   9.73,   1.00, 134.00
2,1, 8,21, 0, 1, 0.00,15.00,SummerDesignDay
9,8335141.67028333
540,0.0
571,0.0
2,1, 8,21, 0, 1,15.00,30.00,SummerDesignDay
9,8335141.67028333
540,0.0
571,0.0
2,1, 8,21, 0, 1,30.00,45.00,SummerDesignDay
9,8335141.67028333
540,0.0
571,0.0
2,1, 8,21, 0, 1,45.00,60.00,SummerDesignDay
9,8335141.67028333
540,0.0
571,0.0
2,1, 8,21, 0, 2, 0.00,15.00,SummerDesignDay
9,8335141.67028333
540,0.0
571,0.0
2,1, 8,21, 0, 2,15.00,30.00,SummerDesignDay
9,8335141.67028333
540,0.0
571,0.0
2,1, 8,21, 0, 2,30.00,45.00,SummerDesignDay
9,8335141.67028333
540,0.0
571,0.0
2,1, 8,21, 0, 2,45.00,60.00,SummerDesignDay
9,8335141.67028333
540,0.0
571,0.0
2,1, 8,21, 0, 3, 0.00,15.00,SummerDesignDay
9,8335141.67028333
540,0.0
571,0.0
2,1, 8,21, 0, 3,15.00,30.00,SummerDesignDay
9,8335141.67028333
540,0.0
571,0.0
2,1, 8,21, 0, 3,30.00,45.00,SummerDesignDay
9,8335141.67028333
540,0.0
571,0.0
2,1, 8,21, 0, 3,45.00,60.00,SummerDesignDay
9,8335141.67028333
540,0.0
571,0.0
2,1, 8,21, 0, 4, 0.00,15.00,SummerDesignDay
9,8335141.67028333
540,0.0
571,0.0
2,1, 8,21, 0, 4,15.00,30.00,SummerDesignDay
9,8335141.67028333
540,0.0
571,0.0
2,1, 8,21, 0, 4,30.00,45.00,SummerDesignDay
9,8335141.67028333
540,0.0
571,0.0
2,1, 8,21, 0, 4,45.00,60.00,SummerDesignDay
9,8335141.67028333
540,0.0
571,0.0
2,1, 8,21, 0, 5, 0.00,15.00,SummerDesignDay
9,8335141.67028333
540,0.0
571,0.0
2,1, 8,21, 0, 5,15.00,30.00,SummerDesignDay
9,8335141.67028333
540,0.0
571,0.0
2,1, 8,21, 0, 5,30.00,45.00,SummerDesignDay
9,8335141.67028333
540,0.0
571,0.0
2,1, 8,21, 0, 5,45.00,60.00,SummerDesignDay
9,8335141.67028333
540,0.0
571,0.0
2,1, 8,21, 0, 6, 0.00,15.00,SummerDesignDay
9,8335141.67028333
540,0.0
571,0.0
2,1, 8,21, 0, 6,15.00,30.00,SummerDesignDay
9,8335141.67028333
540,0.0
571,0.0
2,1, 8,21, 0, 6,30.00,45.00,SummerDesignDay
9,8335141.67028333
540,0.0
571,0.0
2,1, 8,21, 0, 6,45.00,60.00,SummerDesignDay
9,8335141.67028333
540,0.0
571,0.0
2,1, 8,21, 0, 7, 0.00,15.00,SummerDesignDay
9,8335141.67028333
540,0.0
571,0.0
2,1, 8,21, 0, 7,15.00,30.00,SummerDesignDay
9,8335141.67028333
540,0.0
571,0.0
2,1, 8,21, 0, 7,30.00,45.00,SummerDesignDay
9,8335141.67028333
540,0.0
571,0.0
2,1, 8,21, 0, 7,45.00,60.00,SummerDesignDay
9,8335141.67028333
540,0.0
571,0.0
2,1, 8,21, 0, 8, 0.00,15.00,SummerDesignDay
9,8335141.67028333
540,0.0
571,39009.4684602878
2,1, 8,21, 0, 8,15.00,30.00,SummerDesignDay
9,8335141.67028333
540,0.0
571,1963012.02647076
2,1, 8,21, 0, 8,30.00,45.00,SummerDesignDay
9,8335141.67028333
540,0.0
571,4688485.64543217
2,1, 8,21, 0, 8,45.00,60.00,SummerDesignDay
9,8335141.67028333
540,0.0
571,5812346.13614954
2,1, 8,21, 0, 9, 0.00,15.00,SummerDesignDay
9,8335141.67028333
540,0.0
571,7870660.68344596
2,1, 8,21, 0, 9,15.00,30.00,SummerDesignDay