Program Version,EnergyPlus, Version 8.5.0-c87e61b44b, YMD=2018.01.18 15:49
1,5,Environment Title[],Latitude[deg],Longitude[deg],Time Zone[],Elevation[m]
2,6,Day of Simulation[],Month[],Day of Month[],DST Indicator[1=yes 0=no],Hour[],StartMinute[],EndMinute[],DayType
3,3,Cumulative Day of Simulation[],Month[],Day of Month[],DST Indicator[1=yes 0=no],DayType  ! When Daily Meters Requested
4,2,Cumulative Days of Simulation[],Month[]  ! When Monthly Meters Requested
5,1,Cumulative Days of Simulation[] ! When Run Period Meters Requested
9,1,Electricity:Facility [J] !TimeStep
869,1,DistrictCooling:Facility [J] !TimeStep
838,1,DistrictHeating:Facility [J] !TimeStep
End of Data Dictionary
1,ROME ANN CLG .4% CONDNS DB=>MWB,  41.80,  12.23,   1.00,   3.00
2,1, 8,21, 0, 1, 0.00,15.00,SummerDesignDay
9,13700250.
838,0.0
869,5885928.06414401
2,1, 8,21, 0, 1,15.00,30.00,SummerDesignDay
9,13700250.
838,0.0
869,5681587.25537916
2,1, 8,21, 0, 1,30.00,45.00,SummerDesignDay
9,13700250.
838,0.0
869,5463392.14587841
2,1, 8,21, 0, 1,45.00,60.00,SummerDesignDay
9,13700250.
838,0.0
869,5258251.45046631
2,1, 8,21, 0, 2, 0.00,15.00,SummerDesignDay
9,13700250.
838,0.0
869,5101990.96592185
2,1, 8,21, 0, 2,15.00,30.00,SummerDesignDay
9,13700250.
838,0.0
869,4978961.69058049
2,1, 8,21, 0, 2,30.00,45.00,SummerDesignDay
9,13700250.
838,0.0
869,4862377.02256687
2,1, 8,21, 0, 2,45.00,60.00,SummerDesignDay
9,13700250.
838,0.0
869,4744973.99586531
2,1, 8,21, 0, 3, 0.00,15.00,SummerDesignDay
9,13700250.
838,0.0
869,4640118.44503116
2,1, 8,21, 0, 3,15.00,30.00,SummerDesignDay
9,13700250.
838,0.0
869,4535653.38192633
2,1, 8,21, 0, 3,30.00,45.00,SummerDesignDay
9,13700250.
838,0.0
869,4431212.30214347
2,1, 8,21, 0, 3,45.00,60.00,SummerDesignDay
9,13700250.
838,0.0
869,4326747.86525076
2,1, 8,21, 0, 4, 0.00,15.00,SummerDesignDay
9,13700250.
838,0.0
869,4222275.62194955
2,1, 8,21, 0, 4,15.00,30.00,SummerDesignDay
9,13700250.
838,0.0
869,4127657.53741044
2,1, 8,21, 0, 4,30.00,45.00,SummerDesignDay
9,13700250.
838,0.0
869,4033521.03055986
2,1, 8,21, 0, 4,45.00,60.00,SummerDesignDay
9,13700250.
838,0.0
869,3938079.51736584
2,1, 8,21, 0, 5, 0.00,15.00,SummerDesignDay
9,13700250.
838,0.0
869,3855762.93007329
2,1, 8,21, 0, 5,15.00,30.00,SummerDesignDay
9,13700250.
838,0.0
869,3778035.22788751
2,1, 8,21, 0, 5,30.00,45.00,SummerDesignDay
9,13700250.
838,0.0
869,3699995.08455983
2,1, 8,21, 0, 5,45.00,60.00,SummerDesignDay
9,13700250.
838,0.0
869,3625042.95264605
2,1, 8,21, 0, 6, 0.00,15.00,SummerDesignDay
9,13700250.
838,0.0
869,3605587.51431404
2,1, 8,21, 0, 6,15.00,30.00,SummerDesignDay
9,13700250.
838,0.0
869,3608935.25825952
2,1, 8,21, 0, 6,30.00,45.00,SummerDesignDay
9,13700250.
838,0.0
869,3656511.09873966
2,1, 8,21, 0, 6,45.00,60.00,SummerDesignDay
9,13700250.
838,0.0
869,3735802.86465614
2,1, 8,21, 0, 7, 0.00,15.00,SummerDesignDay
9,13700250.
838,0.0
869,44145564.901687
2,1, 8,21, 0, 7,15.00,30.00,SummerDesignDay
9,13700250.
838,0.0
869,17902834.1908005
2,1, 8,21, 0, 7,30.00,45.00,SummerDesignDay
9,13700250.
838,0.0
869,39220005.7750018
2,1, 8,21, 0, 7,45.00,60.00,SummerDesignDay
9,13700250.
838,0.0
869,34209000.7309819
2,1, 8,21, 0, 8, 0.00,15.00,SummerDesignDay
9,13700250.
838,0.0
869,35407810.9478396
2,1, 8,21, 0, 8,15.00,30.00,SummerDesignDay
9,13700250.
838,0.0
869,36892375.7322979
2,1, 8,21, 0, 8,30.00,45.00,SummerDesignDay
9,13700250.
838,0.0
869,38626642.4563588
2,1, 8,21, 0, 8,45.00,60.00,SummerDesignDay
9,13700250.
838,0.0
869,40317436.9741913
2,1, 8,21, 0, 9, 0.00,15.00,SummerDesignDay
9,13700250.
838,0.0
869,42146837.0342984
2,1, 8,21, 0, 9,15.00,30.00,SummerDesignDay
9,13700250.
838,0.0
869,43937881.0839207
2,1, 8,21, 0, 9,30.00,45.00,SummerDesignDay
9,13700250.
838,0.0
869,45725385.783196
2,1, 8,21, 0, 9,45.00,60.00,SummerDesignDay
9,13700250.
838,0.0
869,47542688.4190272
2,1, 8,21, 0,10, 0.00,15.00,SummerDesignDay
9,13700250.
838,0.0
869,49169654.0479989
2,1, 8,21, 0,10,15.00,30.00,SummerDesignDay
9,13700250.
838,0.0
869,50825797.8656402
2,1, 8,21, 0,10,30.00,45.00,SummerDesignDay
9,13700250.
838,0.0
869,52512421.5383614
2,1, 8,21, 0,10,45.00,60.00,SummerDesignDay
9,13700250.
838,0.0
869,54192830.6835141
2,1, 8,21, 0,11, 0.00,15.00,SummerDesignDay
9,13700250.
838,0.0
869,55655849.9948473
2,1, 8,21, 0,11,15.00,30.00,SummerDesignDay
9,13700250.
838,0.0
869,57148734.0768651
2,1, 8,21, 0,11,30.00,45.00,SummerDesignDay
9,13700250.
838,0.0
869,58660659.4966739
2,1, 8,21, 0,11,45.00,60.00,SummerDesignDay
9,13700250.
838,0.0
869,60170832.9402136
2,1, 8,21, 0,12, 0.00,15.00,SummerDesignDay
9,13700250.
838,0.0
869,61196029.5627788
2,1, 8,21, 0,12,15.00,30.00,SummerDesignDay
9,13700250.
838,0.0
869,62252845.2475197
2,1, 8,21, 0,12,30.00,45.00,SummerDesignDay
9,13700250.
838,0.0
869,63329933.8411407
2,1, 8,21, 0,12,45.00,60.00,SummerDesignDay
9,13700250.
838,0.0
869,64393131.2941373
2,1, 8,21, 0,13, 0.00,15.00,SummerDesignDay
9,13700250.
838,0.0
869,65236434.3516263
2,1, 8,21, 0,13,15.00,30.00,SummerDesignDay
9,13700250.
838,0.0
869,66004111.2503795
2,1, 8,21, 0,13,30.00,45.00,SummerDesignDay
9,13700250.
838,0.0
869,66731982.917962
2,1, 8,21, 0,13,45.00,60.00,SummerDesignDay
9,13700250.
838,0.0
869,67479020.6633795
2,1, 8,21, 0,14, 0.00,15.00,SummerDesignDay
9,13700250.
838,0.0
869,67950316.6824549
2,1, 8,21, 0,14,15.00,30.00,SummerDesignDay
9,13700250.
838,0.0
869,68447410.3754585
2,1, 8,21, 0,14,30.00,45.00,SummerDesignDay
9,13700250.
838,0.0
869,68972064.8109419
2,1, 8,21, 0,14,45.00,60.00,SummerDesignDay
9,13700250.
838,0.0
869,69476283.1586597
2,1, 8,21, 0,15, 0.00,15.00,SummerDesignDay
9,13700250.
838,0.0
869,69467789.1725927
2,1, 8,21, 0,15,15.00,30.00,SummerDesignDay
9,13700250.
838,0.0
869,69486354.0901034
2,1, 8,21, 0,15,30.00,45.00,SummerDesignDay
9,13700250.
838,0.0
869,69505292.407085
2,1, 8,21, 0,15,45.00,60.00,SummerDesignDay
9,13700250.
838,0.0
869,69490683.5924766
2,1, 8,21, 0,16, 0.00,15.00,SummerDesignDay
9,13700250.
838,0.0
869,68875889.2957674
2,1, 8,21, 0,16,15.00,30.00,SummerDesignDay
9,13700250.
838,0.0
869,68297341.4985447
2,1, 8,21, 0,16,30.00,45.00,SummerDesignDay
9,13700250.
838,0.0
869,67737281.9365845
2,1, 8,21, 0,16,45.00,60.00,SummerDesignDay
9,13700250.
838,0.0
869,67197783.9012558
2,1, 8,21, 0,17, 0.00,15.00,SummerDesignDay
9,13700250.
838,0.0
869,66466109.1161396
2,1, 8,21, 0,17,15.00,30.00,SummerDesignDay
9,13700250.
838,0.0
869,65749358.4998021
2,1, 8,21, 0,17,30.00,45.00,SummerDesignDay
9,13700250.
838,0.0
869,65032550.785645
2,1, 8,21, 0,17,45.00,60.00,SummerDesignDay
9,13700250.
838,0.0
869,64268948.6196828
2,1, 8,21, 0,18, 0.00,15.00,SummerDesignDay
9,13700250.
838,0.0
869,63312397.8467314
2,1, 8,21, 0,18,15.00,30.00,SummerDesignDay
9,13700250.
838,0.0
869,62367746.3494182
2,1, 8,21, 0,18,30.00,45.00,SummerDesignDay
9,13700250.
838,0.0
869,61423782.2283908
2,1, 8,21, 0,18,45.00,60.00,SummerDesignDay
9,13700250.
838,0.0
869,60505124.279203
2,1, 8,21, 0,19, 0.00,15.00,SummerDesignDay
9,13700250.
838,0.0
869,59112669.3138822
2,1, 8,21, 0,19,15.00,30.00,SummerDesignDay
9,13700250.
838,0.0
869,57708638.6396148
2,1, 8,21, 0,19,30.00,45.00,SummerDesignDay
9,13700250.
838,0.0
869,56253148.0513375
2,1, 8,21, 0,19,45.00,60.00,SummerDesignDay
9,13700250.
838,0.0
869,54734010.8520397
2,1, 8,21, 0,20, 0.00,15.00,SummerDesignDay
9,13700250.
838,0.0
869,53694219.2087796
2,1, 8,21, 0,20,15.00,30.00,SummerDesignDay
9,13700250.
838,0.0
869,52654399.388024
2,1, 8,21, 0,20,30.00,45.00,SummerDesignDay
9,13700250.
838,0.0
869,51594891.218523
2,1, 8,21, 0,20,45.00,60.00,SummerDesignDay
9,13700250.
838,0.0
869,50532719.1839985
2,1, 8,21, 0,21, 0.00,15.00,SummerDesignDay
9,13700250.
838,0.0
869,49668631.4424578
2,1, 8,21, 0,21,15.00,30.00,SummerDesignDay
9,13700250.
838,0.0
869,48778166.0416461
2,1, 8,21, 0,21,30.00,45.00,SummerDesignDay
9,13700250.
838,0.0
869,47885532.1566829
2,1, 8,21, 0,21,45.00,60.00,SummerDesignDay
9,13700250.
838,0.0
869,47020852.3690434
2,1, 8,21, 0,22, 0.00,15.00,SummerDesignDay
9,13700250.
838,0.0
869,46132302.084809
2,1, 8,21, 0,22,15.00,30.00,SummerDesignDay
9,13700250.
838,0.0
869,45205098.2674068
2,1, 8,21, 0,22,30.00,45.00,SummerDesignDay
9,13700250.
838,0.0
869,44284771.6327179
2,1, 8,21, 0,22,45.00,60.00,SummerDesignDay
9,13700250.
838,0.0
869,43355285.6841048
2,1, 8,21, 0,23, 0.00,15.00,SummerDesignDay
9,13700250.
838,0.0
869,2259283.19100715
2,1, 8,21, 0,23,15.00,30.00,SummerDesignDay
9,13700250.
838,0.0
869,4626380.71806698
2,1, 8,21, 0,23,30.00,45.00,SummerDesignDay
9,13700250.
838,0.0
869,5935225.41923545
2,1, 8,21, 0,23,45.00,60.00,SummerDesignDay
9,13700250.
838,0.0
869,6734883.94448373
2,1, 8,21, 0,24, 0.00,15.00,SummerDesignDay
9,13700250.
838,0.0
869,6511495.80703442
2,1, 8,21, 0,24,15.00,30.00,SummerDesignDay
9,13700250.
838,0.0
869,6433403.14930334
2,1, 8,21, 0,24,30.00,45.00,SummerDesignDay
9,13700250.
838,0.0
869,6228865.43817771
2,1, 8,21, 0,24,45.00,60.00,SummerDesignDay
9,13700250.
838,0.0
869,6041587.10025681
1,ROME ANN CLG .4% CONDNS DP=>MDB,  41.80,  12.23,   1.00,   3.00
2,1, 8,21, 0, 1, 0.00,15.00,SummerDesignDay
9,13700250.
838,0.0
869,2680745.11525849
2,1, 8,21, 0, 1,15.00,30.00,SummerDesignDay
9,13700250.
838,0.0
869,2443096.2910054
2,1, 8,21, 0, 1,30.00,45.00,SummerDesignDay
9,13700250.
838,0.0
869,2200040.50954823
2,1, 8,21, 0, 1,45.00,60.00,SummerDesignDay
9,13700250.
838,0.0
869,1963793.61567912
2,1, 8,21, 0, 2, 0.00,15.00,SummerDesignDay
9,13700250.
838,0.0
869,1771236.88132649
2,1, 8,21, 0, 2,15.00,30.00,SummerDesignDay
9,13700250.
838,0.0
869,1589471.09934311
2,1, 8,21, 0, 2,30.00,45.00,SummerDesignDay
9,13700250.
838,0.0
869,1414825.38494741
2,1, 8,21, 0, 2,45.00,60.00,SummerDesignDay
9,13700250.
838,0.0
869,1244965.41208737
2,1, 8,21, 0, 3, 0.00,15.00,SummerDesignDay
9,13700250.
838,0.0
869,1094957.47296865
2,1, 8,21, 0, 3,15.00,30.00,SummerDesignDay
9,13700250.
838,0.0
869,948693.233004404
2,1, 8,21, 0, 3,30.00,45.00,SummerDesignDay
9,13700250.
838,0.0
869,804924.928073601
2,1, 8,21, 0, 3,45.00,60.00,SummerDesignDay
9,13700250.
838,0.0
869,678748.972473194
2,1, 8,21, 0, 4, 0.00,15.00,SummerDesignDay
9,13700250.
838,0.0
869,596202.763742178
2,1, 8,21, 0, 4,15.00,30.00,SummerDesignDay
9,13700250.
838,0.0
869,515007.369484719
2,1, 8,21, 0, 4,30.00,45.00,SummerDesignDay
9,13700250.
838,0.0
869,434905.751164289
2,1, 8,21, 0, 4,45.00,60.00,SummerDesignDay
9,13700250.
838,0.0
869,355705.620898936
2,1, 8,21, 0, 5, 0.00,15.00,SummerDesignDay
9,13700250.
838,0.0
869,285604.486649698
2,1, 8,21, 0, 5,15.00,30.00,SummerDesignDay
9,13700250.
838,0.0
869,216888.616528089
2,1, 8,21, 0, 5,30.00,45.00,SummerDesignDay
9,13700250.
838,0.0
869,149135.765462649
2,1, 8,21, 0, 5,45.00,60.00,SummerDesignDay
9,13700250.
838,0.0
869,82161.8717702994
2,1, 8,21, 0, 6, 0.00,15.00,SummerDesignDay
9,13700250.
838,0.0
869,48534.6290905228
2,1, 8,21, 0, 6,15.00,30.00,SummerDesignDay
9,13700250.
838,0.0
869,31810.0512900962
2,1, 8,21, 0, 6,30.00,45.00,SummerDesignDay
9,13700250.
838,0.0
869,27225.3987584314
2,1, 8,21, 0, 6,45.00,60.00,SummerDesignDay
9,13700250.
838,0.0
869,29584.2349058083
2,1, 8,21, 0, 7, 0.00,15.00,SummerDesignDay
9,13700250.
838,0.0
869,22766093.7961352
2,1, 8,21, 0, 7,15.00,30.00,SummerDesignDay
9,13700250.
838,0.0
869,1088108.00576438
2,1, 8,21, 0, 7,30.00,45.00,SummerDesignDay
9,13700250.
838,0.0
869,14754250.7773191
2,1, 8,21, 0, 7,45.00,60.00,SummerDesignDay
9,13700250.
838,0.0
869,14720566.8921133
2,1, 8,21, 0, 8, 0.00,15.00,SummerDesignDay
9,13700250.
838,0.0
869,15686126.0898074
2,1, 8,21, 0, 8,15.00,30.00,SummerDesignDay
9,13700250.
838,0.0
869,18542757.3486874
2,1, 8,21, 0, 8,30.00,45.00,SummerDesignDay
9,13700250.
838,0.0
869,21313895.9446046
2,1, 8,21, 0, 8,45.00,60.00,SummerDesignDay
9,13700250.
838,0.0
869,24080754.7562819
2,1, 8,21, 0, 9, 0.00,15.00,SummerDesignDay
9,13700250.
838,0.0
869,27127649.6609711
2,1, 8,21, 0, 9,15.00,30.00,SummerDesignDay
9,13700250.
838,0.0
869,30282353.7742672
2,1, 8,21, 0, 9,30.00,45.00,SummerDesignDay
9,13700250.
838,0.0
869,33555174.3947243
2,1, 8,21, 0, 9,45.00,60.00,SummerDesignDay
9,13700250.
838,0.0
869,36948505.3445445
2,1, 8,21, 0,10, 0.00,15.00,SummerDesignDay
9,13700250.
838,0.0
869,40137085.5346252
2,1, 8,21, 0,10,15.00,30.00,SummerDesignDay
9,13700250.
838,0.0
869,43351542.5496656
2,1, 8,21, 0,10,30.00,45.00,SummerDesignDay
9,13700250.
838,0.0
869,46596621.0545771
2,1, 8,21, 0,10,45.00,60.00,SummerDesignDay
9,13700250.
838,0.0
869,49894655.4443723
2,1, 8,21, 0,11, 0.00,15.00,SummerDesignDay
9,13700250.
838,0.0
869,52950301.2547177
2,1, 8,21, 0,11,15.00,30.00,SummerDesignDay
9,13700250.
838,0.0
869,56009678.3612416
2,1, 8,21, 0,11,30.00,45.00,SummerDesignDay
9,13700250.
838,0.0
869,59081144.3706051
2,1, 8,21, 0,11,45.00,60.00,SummerDesignDay
9,13700250.
838,0.0
869,62186732.8033837
2,1, 8,21, 0,12, 0.00,15.00,SummerDesignDay
9,13700250.
838,0.0
869,64031805.3714496
2,1, 8,21, 0,12,15.00,30.00,SummerDesignDay
9,13700250.
838,0.0
869,65479872.5831699
2,1, 8,21, 0,12,30.00,45.00,SummerDesignDay
9,13700250.
838,0.0
869,66814694.0503711
2,1, 8,21, 0,12,45.00,60.00,SummerDesignDay
9,13700250.
838,0.0
869,68134318.3970812
2,1, 8,21, 0,13, 0.00,15.00,SummerDesignDay
9,13700250.
838,0.0
869,69143687.7009616
2,1, 8,21, 0,13,15.00,30.00,SummerDesignDay
9,13700250.
838,0.0
869,70159267.9515975
2,1, 8,21, 0,13,30.00,45.00,SummerDesignDay
9,13700250.
838,0.0
869,71173322.9281991
2,1, 8,21, 0,13,45.00,60.00,SummerDesignDay
9,13700250.
838,0.0
869,72161672.642265
2,1, 8,21, 0,14, 0.00,15.00,SummerDesignDay
9,13700250.
838,0.0
869,72706904.285011
2,1, 8,21, 0,14,15.00,30.00,SummerDesignDay
9,13700250.
838,0.0
869,73287457.5425009
2,1, 8,21, 0,14,30.00,45.00,SummerDesignDay
9,13700250.
838,0.0
869,73887150.2153123
2,1, 8,21, 0,14,45.00,60.00,SummerDesignDay
9,13700250.
838,0.0
869,74466795.2544889
2,1, 8,21, 0,15, 0.00,15.00,SummerDesignDay
9,13700250.
838,0.0
869,74333283.013779
2,1, 8,21, 0,15,15.00,30.00,SummerDesignDay
9,13700250.
838,0.0
869,74275343.2672708
2,1, 8,21, 0,15,30.00,45.00,SummerDesignDay
9,13700250.
838,0.0
869,74261782.5315299
2,1, 8,21, 0,15,45.00,60.00,SummerDesignDay
9,13700250.
838,0.0
869,74224707.6146387
2,1, 8,21, 0,16, 0.00,15.00,SummerDesignDay
9,13700250.
838,0.0
869,73347933.9159045
2,1, 8,21, 0,16,15.00,30.00,SummerDesignDay
9,13700250.
838,0.0
869,72568999.0283696
2,1, 8,21, 0,16,30.00,45.00,SummerDesignDay
9,13700250.
838,0.0
869,71857129.1346463
2,1, 8,21, 0,16,45.00,60.00,SummerDesignDay
9,13700250.
838,0.0
869,71191275.9664892
2,1, 8,21, 0,17, 0.00,15.00,SummerDesignDay
9,13700250.
838,0.0
869,70254430.44859
2,1, 8,21, 0,17,15.00,30.00,SummerDesignDay
9,13700250.
838,0.0
869,69361948.7229729
2,1, 8,21, 0,17,30.00,45.00,SummerDesignDay
9,13700250.
838,0.0
869,68482359.2122123
2,1, 8,21, 0,17,45.00,60.00,SummerDesignDay
9,13700250.
838,0.0
869,67544800.3851435
2,1, 8,21, 0,18, 0.00,15.00,SummerDesignDay
9,13700250.
838,0.0
869,66331623.641949
2,1, 8,21, 0,18,15.00,30.00,SummerDesignDay
9,13700250.
838,0.0
869,65155971.9155208
2,1, 8,21, 0,18,30.00,45.00,SummerDesignDay
9,13700250.
838,0.0
869,63987190.4434252
2,1, 8,21, 0,18,45.00,60.00,SummerDesignDay
9,13700250.
838,0.0
869,62839200.4029994
2,1, 8,21, 0,19, 0.00,15.00,SummerDesignDay
9,13700250.
838,0.0
869,60966037.2559446
2,1, 8,21, 0,19,15.00,30.00,SummerDesignDay
9,13700250.
838,0.0
869,58859435.0765694
2,1, 8,21, 0,19,30.00,45.00,SummerDesignDay
9,13700250.
838,0.0
869,56221575.8747936
2,1, 8,21, 0,19,45.00,60.00,SummerDesignDay
9,13700250.
838,0.0
869,53236310.6531165
2,1, 8,21, 0,20, 0.00,15.00,SummerDesignDay
9,13700250.
838,0.0
869,50927765.4632882
2,1, 8,21, 0,20,15.00,30.00,SummerDesignDay
9,13700250.
838,0.0
869,48771715.7698776
2,1, 8,21, 0,20,30.00,45.00,SummerDesignDay
9,13700250.
838,0.0
869,46691623.910712
2,1, 8,21, 0,20,45.00,60.00,SummerDesignDay
9,13700250.
838,0.0
869,44634863.3994542
2,1, 8,21, 0,21, 0.00,15.00,SummerDesignDay
9,13700250.
838,0.0
869,42870992.8170646
2,1, 8,21, 0,21,15.00,30.00,SummerDesignDay
9,13700250.
838,0.0
869,41143038.4728323
2,1, 8,21, 0,21,30.00,45.00,SummerDesignDay
9,13700250.
838,0.0
869,39444114.8564551
2,1, 8,21, 0,21,45.00,60.00,SummerDesignDay
9,13700250.
838,0.0
869,37759306.8065922
2,1, 8,21, 0,22, 0.00,15.00,SummerDesignDay
9,13700250.
838,0.0
869,36086273.9461054
2,1, 8,21, 0,22,15.00,30.00,SummerDesignDay
9,13700250.
838,0.0
869,34419388.0765685
2,1, 8,21, 0,22,30.00,45.00,SummerDesignDay
9,13700250.
838,0.0
869,32763484.6669986
2,1, 8,21, 0,22,45.00,60.00,SummerDesignDay
9,13700250.
838,0.0
869,31117898.3288795
2,1, 8,21, 0,23, 0.00,15.00,SummerDesignDay
9,13700250.
838,0.0
869,0.0
2,1, 8,21, 0,23,15.00,30.00,SummerDesignDay
9,13700250.
838,0.0
869,1200500.81845769
2,1, 8,21, 0,23,30.00,45.00,SummerDesignDay
9,13700250.
838,0.0
869,1588614.55554755
2,1, 8,21, 0,23,45.00,60.00,SummerDesignDay
9,13700250.
838,0.0
869,3353942.18744307
2,1, 8,21, 0,24, 0.00,15.00,SummerDesignDay
9,13700250.
838,0.0
869,3434291.85106129
2,1, 8,21, 0,24,15.00,30.00,SummerDesignDay
9,13700250.
838,0.0
869,2693706.69565707
2,1, 8,21, 0,24,30.00,45.00,SummerDesignDay
9,13700250.
838,0.0
869,2661740.28839795
2,1, 8,21, 0,24,45.00,60.00,SummerDesignDay
9,13700250.
838,0.0
869,2442018.18413998
1,ROME ANN CLG .4% CONDNS ENTH=>MDB,  41.80,  12.23,   1.00,   3.00
2,1, 8,21, 0, 1, 0.00,15.00,SummerDesignDay
9,13700250.
838,0.0
869,4273494.06834061
2,1, 8,21, 0, 1,15.00,30.00,SummerDesignDay
9,13700250.
838,0.0
869,4008423.26171027
2,1, 8,21, 0, 1,30.00,45.00,SummerDesignDay
9,13700250.
838,0.0
869,3736883.81273753
2,1, 8,21, 0, 1,45.00,60.00,SummerDesignDay
9,13700250.
838,0.0
869,3477785.52252418
2,1, 8,21, 0, 2, 0.00,15.00,SummerDesignDay
9,13700250.
838,0.0
869,3269073.64784427
2,1, 8,21, 0, 2,15.00,30.00,SummerDesignDay
9,13700250.
838,0.0
869,3077163.80488853
2,1, 8,21, 0, 2,30.00,45.00,SummerDesignDay
9,13700250.
838,0.0
869,2896735.69274848
2,1, 8,21, 0, 2,45.00,60.00,SummerDesignDay
9,13700250.
838,0.0
869,2724052.98089049
2,1, 8,21, 0, 3, 0.00,15.00,SummerDesignDay
9,13700250.
838,0.0
869,2573000.32870862
2,1, 8,21, 0, 3,15.00,30.00,SummerDesignDay
9,13700250.
838,0.0
869,2427241.22132424
2,1, 8,21, 0, 3,30.00,45.00,SummerDesignDay
9,13700250.
838,0.0
869,2285238.52885782
2,1, 8,21, 0, 3,45.00,60.00,SummerDesignDay
9,13700250.
838,0.0
869,2146061.27347621
2,1, 8,21, 0, 4, 0.00,15.00,SummerDesignDay
9,13700250.
838,0.0
869,2009027.08247853
2,1, 8,21, 0, 4,15.00,30.00,SummerDesignDay
9,13700250.
838,0.0
869,1873642.47478268
2,1, 8,21, 0, 4,30.00,45.00,SummerDesignDay
9,13700250.
838,0.0
869,1739555.89902371
2,1, 8,21, 0, 4,45.00,60.00,SummerDesignDay
9,13700250.
838,0.0
869,1606517.15345292
2,1, 8,21, 0, 5, 0.00,15.00,SummerDesignDay
9,13700250.
838,0.0
869,1490725.79123225
2,1, 8,21, 0, 5,15.00,30.00,SummerDesignDay
9,13700250.
838,0.0
869,1377225.36174483
2,1, 8,21, 0, 5,30.00,45.00,SummerDesignDay
9,13700250.
838,0.0
869,1265942.14439701
2,1, 8,21, 0, 5,45.00,60.00,SummerDesignDay
9,13700250.
838,0.0
869,1155893.49016781
2,1, 8,21, 0, 6, 0.00,15.00,SummerDesignDay
9,13700250.
838,0.0
869,1111330.14880875
2,1, 8,21, 0, 6,15.00,30.00,SummerDesignDay
9,13700250.
838,0.0
869,1097514.56285882
2,1, 8,21, 0, 6,30.00,45.00,SummerDesignDay
9,13700250.
838,0.0
869,1141621.17904069
2,1, 8,21, 0, 6,45.00,60.00,SummerDesignDay
9,13700250.
838,0.0
869,1228528.27076831
2,1, 8,21, 0, 7, 0.00,15.00,SummerDesignDay
9,13700250.
838,0.0
869,31633868.6271869
2,1, 8,21, 0, 7,15.00,30.00,SummerDesignDay
9,13700250.
838,0.0
869,4688189.80117918
2,1, 8,21, 0, 7,30.00,45.00,SummerDesignDay
9,13700250.
838,0.0
869,26846064.721505
2,1, 8,21, 0, 7,45.00,60.00,SummerDesignDay
9,13700250.
838,0.0
869,22066811.727496
2,1, 8,21, 0, 8, 0.00,15.00,SummerDesignDay
9,13700250.
838,0.0
869,24285306.5052624
2,1, 8,21, 0, 8,15.00,30.00,SummerDesignDay
9,13700250.
838,0.0
869,26650317.179406
2,1, 8,21, 0, 8,30.00,45.00,SummerDesignDay
9,13700250.
838,0.0
869,29402197.6950202
2,1, 8,21, 0, 8,45.00,60.00,SummerDesignDay
9,13700250.
838,0.0
869,32276910.4733007
2,1, 8,21, 0, 9, 0.00,15.00,SummerDesignDay
9,13700250.
838,0.0
869,35451568.3070957
2,1, 8,21, 0, 9,15.00,30.00,SummerDesignDay
9,13700250.
838,0.0
869,38715444.1337499
2,1, 8,21, 0, 9,30.00,45.00,SummerDesignDay
9,13700250.
838,0.0
869,42085161.9108901
2,1, 8,21, 0, 9,45.00,60.00,SummerDesignDay
9,13700250.
838,0.0
869,45573092.6328782
2,1, 8,21, 0,10, 0.00,15.00,SummerDesignDay
9,13700250.
838,0.0
869,48858299.6339644
2,1, 8,21, 0,10,15.00,30.00,SummerDesignDay
9,13700250.
838,0.0
869,52195500.3841169
2,1, 8,21, 0,10,30.00,45.00,SummerDesignDay
9,13700250.
838,0.0
869,55569457.9507873
2,1, 8,21, 0,10,45.00,60.00,SummerDesignDay
9,13700250.
838,0.0
869,58998907.3016077
2,1, 8,21, 0,11, 0.00,15.00,SummerDesignDay
9,13700250.
838,0.0
869,62175779.5851552
2,1, 8,21, 0,11,15.00,30.00,SummerDesignDay
9,13700250.
838,0.0
869,65388113.4031593
2,1, 8,21, 0,11,30.00,45.00,SummerDesignDay
9,13700250.
838,0.0
869,68612720.2691908
2,1, 8,21, 0,11,45.00,60.00,SummerDesignDay
9,13700250.
838,0.0
869,71859608.5838875
2,1, 8,21, 0,12, 0.00,15.00,SummerDesignDay
9,13700250.
838,0.0
869,74386686.419391
2,1, 8,21, 0,12,15.00,30.00,SummerDesignDay
9,13700250.
838,0.0
869,76811455.8752694
2,1, 8,21, 0,12,30.00,45.00,SummerDesignDay
9,13700250.
838,0.0
869,79154167.0161348
2,1, 8,21, 0,12,45.00,60.00,SummerDesignDay
9,13700250.
838,0.0
869,81477063.8762634
2,1, 8,21, 0,13, 0.00,15.00,SummerDesignDay
9,13700250.
838,0.0
869,83495003.2108508
2,1, 8,21, 0,13,15.00,30.00,SummerDesignDay
9,13700250.
838,0.0
869,85456000.7961266
2,1, 8,21, 0,13,30.00,45.00,SummerDesignDay
9,13700250.
838,0.0
869,87368760.5277301
2,1, 8,21, 0,13,45.00,60.00,SummerDesignDay
9,13700250.
838,0.0
869,89257862.9920261
2,1, 8,21, 0,14, 0.00,15.00,SummerDesignDay
9,13700250.
838,0.0
869,90668048.8592027
2,1, 8,21, 0,14,15.00,30.00,SummerDesignDay
9,13700250.
838,0.0
869,91965043.5435443
2,1, 8,21, 0,14,30.00,45.00,SummerDesignDay
9,13700250.
838,0.0
869,93177616.2863343
2,1, 8,21, 0,14,45.00,60.00,SummerDesignDay
9,13700250.
838,0.0
869,94349149.3504557
2,1, 8,21, 0,15, 0.00,15.00,SummerDesignDay
9,13700250.
838,0.0
869,94704998.5176821
2,1, 8,21, 0,15,15.00,30.00,SummerDesignDay
9,13700250.
838,0.0
869,94864835.710336
2,1, 8,21, 0,15,30.00,45.00,SummerDesignDay
9,13700250.
838,0.0
869,94882631.9727356
2,1, 8,21, 0,15,45.00,60.00,SummerDesignDay
9,13700250.
838,0.0
869,94831226.0879067
2,1, 8,21, 0,16, 0.00,15.00,SummerDesignDay
9,13700250.
838,0.0
869,93809238.0865505
2,1, 8,21, 0,16,15.00,30.00,SummerDesignDay
9,13700250.
838,0.0
869,92571306.3365881
2,1, 8,21, 0,16,30.00,45.00,SummerDesignDay
9,13700250.
838,0.0
869,91194280.0009812
2,1, 8,21, 0,16,45.00,60.00,SummerDesignDay
9,13700250.
838,0.0
869,89833879.4138806
2,1, 8,21, 0,17, 0.00,15.00,SummerDesignDay
9,13700250.
838,0.0
869,88182925.0350107
2,1, 8,21, 0,17,15.00,30.00,SummerDesignDay
9,13700250.
838,0.0
869,86496974.5376889
2,1, 8,21, 0,17,30.00,45.00,SummerDesignDay
9,13700250.
838,0.0
869,84765038.347474
2,1, 8,21, 0,17,45.00,60.00,SummerDesignDay
9,13700250.
838,0.0
869,82970803.3671464
2,1, 8,21, 0,18, 0.00,15.00,SummerDesignDay
9,13700250.
838,0.0
869,80896962.7466186
2,1, 8,21, 0,18,15.00,30.00,SummerDesignDay
9,13700250.
838,0.0
869,78791277.0034276
2,1, 8,21, 0,18,30.00,45.00,SummerDesignDay
9,13700250.
838,0.0
869,76659924.6673041
2,1, 8,21, 0,18,45.00,60.00,SummerDesignDay
9,13700250.
838,0.0
869,74574017.7023513
2,1, 8,21, 0,19, 0.00,15.00,SummerDesignDay
9,13700250.
838,0.0
869,71767212.314845
2,1, 8,21, 0,19,15.00,30.00,SummerDesignDay
9,13700250.
838,0.0
869,68810394.6128455
2,1, 8,21, 0,19,30.00,45.00,SummerDesignDay
9,13700250.
838,0.0
869,65707240.044833
2,1, 8,21, 0,19,45.00,60.00,SummerDesignDay
9,13700250.
838,0.0
869,62545052.2874305
2,1, 8,21, 0,20, 0.00,15.00,SummerDesignDay
9,13700250.
838,0.0
869,60132771.6374456
2,1, 8,21, 0,20,15.00,30.00,SummerDesignDay
9,13700250.
838,0.0
869,57896713.4824009
2,1, 8,21, 0,20,30.00,45.00,SummerDesignDay
9,13700250.
838,0.0
869,55736908.7069227
2,1, 8,21, 0,20,45.00,60.00,SummerDesignDay
9,13700250.
838,0.0
869,53609708.2964662
2,1, 8,21, 0,21, 0.00,15.00,SummerDesignDay
9,13700250.
838,0.0
869,51781344.3946654
2,1, 8,21, 0,21,15.00,30.00,SummerDesignDay
9,13700250.
838,0.0
869,49989734.3484427
2,1, 8,21, 0,21,30.00,45.00,SummerDesignDay
9,13700250.
838,0.0
869,48230156.9207679
2,1, 8,21, 0,21,45.00,60.00,SummerDesignDay
9,13700250.
838,0.0
869,46486739.3536086
2,1, 8,21, 0,22, 0.00,15.00,SummerDesignDay
9,13700250.
838,0.0
869,44752273.1022605
2,1, 8,21, 0,22,15.00,30.00,SummerDesignDay
9,13700250.
838,0.0
869,43026340.0427343
2,1, 8,21, 0,22,30.00,45.00,SummerDesignDay
9,13700250.
838,0.0
869,41309979.8837448
2,1, 8,21, 0,22,45.00,60.00,SummerDesignDay
9,13700250.
838,0.0
869,39602459.6053373
2,1, 8,21, 0,23, 0.00,15.00,SummerDesignDay
9,13700250.
838,0.0
869,568118.828052222
2,1, 8,21, 0,23,15.00,30.00,SummerDesignDay
9,13700250.
838,0.0
869,2597764.54460415
2,1, 8,21, 0,23,30.00,45.00,SummerDesignDay
9,13700250.
838,0.0
869,3628293.8597217
2,1, 8,21, 0,23,45.00,60.00,SummerDesignDay
9,13700250.
838,0.0
869,4980469.63773856
2,1, 8,21, 0,24, 0.00,15.00,SummerDesignDay
9,13700250.
838,0.0
869,4885839.23466555
2,1, 8,21, 0,24,15.00,30.00,SummerDesignDay
9,13700250.
838,0.0
869,4634146.53187092
2,1, 8,21, 0,24,30.00,45.00,SummerDesignDay
9,13700250.
838,0.0
869,4445741.47795918
2,1, 8,21, 0,24,45.00,60.00,SummerDesignDay
9,13700250.
838,0.0
869,4194086.87640928
1,ROME ANN CLG .4% CONDNS WB=>MDB,  41.80,  12.23,   1.00,   3.00
2,1, 8,21, 0, 1, 0.00,15.00,SummerDesignDay
9,13700250.
838,0.0
869,3979578.86333708
2,1, 8,21, 0, 1,15.00,30.00,SummerDesignDay
9,13700250.
838,0.0
869,3718833.66892687
2,1, 8,21, 0, 1,30.00,45.00,SummerDesignDay
9,13700250.
838,0.0
869,3452346.19524274
2,1, 8,21, 0, 1,45.00,60.00,SummerDesignDay
9,13700250.
838,0.0
869,3197422.49952326
2,1, 8,21, 0, 2, 0.00,15.00,SummerDesignDay
9,13700250.
838,0.0
869,2991681.66433851
2,1, 8,21, 0, 2,15.00,30.00,SummerDesignDay
9,13700250.
838,0.0
869,2801628.39940288
2,1, 8,21, 0, 2,30.00,45.00,SummerDesignDay
9,13700250.
838,0.0
869,2622262.83226501
2,1, 8,21, 0, 2,45.00,60.00,SummerDesignDay
9,13700250.
838,0.0
869,2450122.70618881
2,1, 8,21, 0, 3, 0.00,15.00,SummerDesignDay
9,13700250.
838,0.0
869,2299320.25468749
2,1, 8,21, 0, 3,15.00,30.00,SummerDesignDay
9,13700250.
838,0.0
869,2153554.83338691
2,1, 8,21, 0, 3,30.00,45.00,SummerDesignDay
9,13700250.
838,0.0
869,2011339.35086743
2,1, 8,21, 0, 3,45.00,60.00,SummerDesignDay
9,13700250.
838,0.0
869,1871788.77155788
2,1, 8,21, 0, 4, 0.00,15.00,SummerDesignDay
9,13700250.
838,0.0
869,1734258.7482303
2,1, 8,21, 0, 4,15.00,30.00,SummerDesignDay
9,13700250.
838,0.0
869,1598284.27744136
2,1, 8,21, 0, 4,30.00,45.00,SummerDesignDay
9,13700250.
838,0.0
869,1463533.68452785
2,1, 8,21, 0, 4,45.00,60.00,SummerDesignDay
9,13700250.
838,0.0
869,1329770.05684047
2,1, 8,21, 0, 5, 0.00,15.00,SummerDesignDay
9,13700250.
838,0.0
869,1213253.46508324
2,1, 8,21, 0, 5,15.00,30.00,SummerDesignDay
9,13700250.
838,0.0
869,1098967.13593443
2,1, 8,21, 0, 5,30.00,45.00,SummerDesignDay
9,13700250.
838,0.0
869,986197.473638955
2,1, 8,21, 0, 5,45.00,60.00,SummerDesignDay
9,13700250.
838,0.0
869,875266.509947284
2,1, 8,21, 0, 6, 0.00,15.00,SummerDesignDay
9,13700250.
838,0.0
869,830153.1372781
2,1, 8,21, 0, 6,15.00,30.00,SummerDesignDay
9,13700250.
838,0.0
869,815760.692165854
2,1, 8,21, 0, 6,30.00,45.00,SummerDesignDay
9,13700250.
838,0.0
869,859564.024293972
2,1, 8,21, 0, 6,45.00,60.00,SummerDesignDay
9,13700250.
838,0.0
869,946447.261258981
2,1, 8,21, 0, 7, 0.00,15.00,SummerDesignDay
9,13700250.
838,0.0
869,30003656.2090473
2,1, 8,21, 0, 7,15.00,30.00,SummerDesignDay
9,13700250.
838,0.0
869,3274666.80566207
2,1, 8,21, 0, 7,30.00,45.00,SummerDesignDay
9,13700250.
838,0.0
869,25256369.1044861
2,1, 8,21, 0, 7,45.00,60.00,SummerDesignDay
9,13700250.
838,0.0
869,20513511.1952091
2,1, 8,21, 0, 8, 0.00,15.00,SummerDesignDay
9,13700250.
838,0.0
869,22785966.2526569
2,1, 8,21, 0, 8,15.00,30.00,SummerDesignDay
9,13700250.
838,0.0
869,25156331.5614224
2,1, 8,21, 0, 8,30.00,45.00,SummerDesignDay
9,13700250.
838,0.0
869,27893038.1631567
2,1, 8,21, 0, 8,45.00,60.00,SummerDesignDay
9,13700250.
838,0.0
869,30750108.2948908
2,1, 8,21, 0, 9, 0.00,15.00,SummerDesignDay
9,13700250.
838,0.0
869,33909127.3118522
2,1, 8,21, 0, 9,15.00,30.00,SummerDesignDay
9,13700250.
838,0.0
869,37156805.3404037
2,1, 8,21, 0, 9,30.00,45.00,SummerDesignDay
9,13700250.
838,0.0
869,40508999.3195486
2,1, 8,21, 0, 9,45.00,60.00,SummerDesignDay
9,13700250.
838,0.0
869,43981010.8403237
2,1, 8,21, 0,10, 0.00,15.00,SummerDesignDay
9,13700250.
838,0.0
869,47245604.7798297
2,1, 8,21, 0,10,15.00,30.00,SummerDesignDay
9,13700250.
838,0.0
869,50562030.1231201
2,1, 8,21, 0,10,30.00,45.00,SummerDesignDay
9,13700250.