Program Version,EnergyPlus, Version 8.5.0-c87e61b44b, YMD=2018.01.09 13:45
1,5,Environment Title[],Latitude[deg],Longitude[deg],Time Zone[],Elevation[m]
2,6,Day of Simulation[],Month[],Day of Month[],DST Indicator[1=yes 0=no],Hour[],StartMinute[],EndMinute[],DayType
3,3,Cumulative Day of Simulation[],Month[],Day of Month[],DST Indicator[1=yes 0=no],DayType  ! When Daily Meters Requested
4,2,Cumulative Days of Simulation[],Month[]  ! When Monthly Meters Requested
5,1,Cumulative Days of Simulation[] ! When Run Period Meters Requested
9,1,Electricity:Facility [J] !TimeStep
1166,1,DistrictCooling:Facility [J] !TimeStep
1135,1,DistrictHeating:Facility [J] !TimeStep
End of Data Dictionary
1,CAIRO ANN CLG .4% CONDNS DB=>MWB,  40.78, -73.96,  -5.00,  40.00
2,1, 7,21, 0, 1, 0.00,15.00,SummerDesignDay
9,84787107.0742141
1135,0.0
1166,68587615.5993146
2,1, 7,21, 0, 1,15.00,30.00,SummerDesignDay
9,84787107.0742141
1135,0.0
1166,67854848.6053706
2,1, 7,21, 0, 1,30.00,45.00,SummerDesignDay
9,84787107.0742141
1135,0.0
1166,67043026.9543482
2,1, 7,21, 0, 1,45.00,60.00,SummerDesignDay
9,84787107.0742141
1135,0.0
1166,66409479.3365452
2,1, 7,21, 0, 2, 0.00,15.00,SummerDesignDay
9,84787107.0742141
1135,0.0
1166,66031918.0261661
2,1, 7,21, 0, 2,15.00,30.00,SummerDesignDay
9,84787107.0742141
1135,0.0
1166,65736961.6384167
2,1, 7,21, 0, 2,30.00,45.00,SummerDesignDay
9,84787107.0742141
1135,0.0
1166,65453436.9161354
2,1, 7,21, 0, 2,45.00,60.00,SummerDesignDay
9,84787107.0742141
1135,0.0
1166,65159169.719551
2,1, 7,21, 0, 3, 0.00,15.00,SummerDesignDay
9,84787107.0742141
1135,0.0
1166,64898391.079281
2,1, 7,21, 0, 3,15.00,30.00,SummerDesignDay
9,84787107.0742141
1135,0.0
1166,64636430.8287154
2,1, 7,21, 0, 3,30.00,45.00,SummerDesignDay
9,84787107.0742141
1135,0.0
1166,64372530.3444997
2,1, 7,21, 0, 3,45.00,60.00,SummerDesignDay
9,84787107.0742141
1135,0.0
1166,64106231.595562
2,1, 7,21, 0, 4, 0.00,15.00,SummerDesignDay
9,84787107.0742141
1135,0.0
1166,63837159.8269253
2,1, 7,21, 0, 4,15.00,30.00,SummerDesignDay
9,84787107.0742141
1135,0.0
1166,63565414.5636964
2,1, 7,21, 0, 4,30.00,45.00,SummerDesignDay
9,84787107.0742141
1135,0.0
1166,63291532.8255671
2,1, 7,21, 0, 4,45.00,60.00,SummerDesignDay
9,84787107.0742141
1135,0.0
1166,63016688.3010694
2,1, 7,21, 0, 5, 0.00,15.00,SummerDesignDay
9,84787107.0742141
1135,0.0
1166,62784831.8766193
2,1, 7,21, 0, 5,15.00,30.00,SummerDesignDay
9,84787107.0742141
1135,0.0
1166,62556492.6003128
2,1, 7,21, 0, 5,30.00,45.00,SummerDesignDay
9,84787107.0742141
1135,0.0
1166,62328858.786983
2,1, 7,21, 0, 5,45.00,60.00,SummerDesignDay
9,84787107.0742141
1135,0.0
1166,62627795.4012431
2,1, 7,21, 0, 6, 0.00,15.00,SummerDesignDay
9,84787107.0742141
1135,0.0
1166,63640855.2067518
2,1, 7,21, 0, 6,15.00,30.00,SummerDesignDay
9,84787107.0742141
1135,0.0
1166,64834980.3100193
2,1, 7,21, 0, 6,30.00,45.00,SummerDesignDay
9,84787107.0742141
1135,0.0
1166,65989297.2244565
2,1, 7,21, 0, 6,45.00,60.00,SummerDesignDay
9,84787107.0742141
1135,0.0
1166,67084937.1372516
2,1, 7,21, 0, 7, 0.00,15.00,SummerDesignDay
9,84787107.0742141
1135,0.0
1166,186499140.822172
2,1, 7,21, 0, 7,15.00,30.00,SummerDesignDay
9,84787107.0742141
1135,0.0
1166,112592484.25572
2,1, 7,21, 0, 7,30.00,45.00,SummerDesignDay
9,84787107.0742141
1135,0.0
1166,177572834.509244
2,1, 7,21, 0, 7,45.00,60.00,SummerDesignDay
9,84787107.0742141
1135,0.0
1166,162159415.251802
2,1, 7,21, 0, 8, 0.00,15.00,SummerDesignDay
9,84787107.0742141
1135,0.0
1166,162837775.588729
2,1, 7,21, 0, 8,15.00,30.00,SummerDesignDay
9,84787107.0742141
1135,0.0
1166,164972737.496763
2,1, 7,21, 0, 8,30.00,45.00,SummerDesignDay
9,84787107.0742141
1135,0.0
1166,167674741.628257
2,1, 7,21, 0, 8,45.00,60.00,SummerDesignDay
9,84787107.0742141
1135,0.0
1166,170257041.815767
2,1, 7,21, 0, 9, 0.00,15.00,SummerDesignDay
9,84787107.0742141
1135,0.0
1166,173014214.363268
2,1, 7,21, 0, 9,15.00,30.00,SummerDesignDay
9,84787107.0742141
1135,0.0
1166,175734096.125166
2,1, 7,21, 0, 9,30.00,45.00,SummerDesignDay
9,84787107.0742141
1135,0.0
1166,178440574.406715
2,1, 7,21, 0, 9,45.00,60.00,SummerDesignDay
9,84787107.0742141
1135,0.0
1166,181107041.499991
2,1, 7,21, 0,10, 0.00,15.00,SummerDesignDay
9,84787107.0742141
1135,0.0
1166,183425546.724191
2,1, 7,21, 0,10,15.00,30.00,SummerDesignDay
9,84787107.0742141
1135,0.0
1166,185695318.657059
2,1, 7,21, 0,10,30.00,45.00,SummerDesignDay
9,84787107.0742141
1135,0.0
1166,187926815.75641
2,1, 7,21, 0,10,45.00,60.00,SummerDesignDay
9,84787107.0742141
1135,0.0
1166,190121506.30647
2,1, 7,21, 0,11, 0.00,15.00,SummerDesignDay
9,84787107.0742141
1135,0.0
1166,192013035.201872
2,1, 7,21, 0,11,15.00,30.00,SummerDesignDay
9,84787107.0742141
1135,0.0
1166,194199136.02999
2,1, 7,21, 0,11,30.00,45.00,SummerDesignDay
9,84787107.0742141
1135,0.0
1166,196524203.405895
2,1, 7,21, 0,11,45.00,60.00,SummerDesignDay
9,84787107.0742141
1135,0.0
1166,198902145.917673
2,1, 7,21, 0,12, 0.00,15.00,SummerDesignDay
9,84787107.0742141
1135,0.0
1166,200506288.395852
2,1, 7,21, 0,12,15.00,30.00,SummerDesignDay
9,84787107.0742141
1135,0.0
1166,202159198.842077
2,1, 7,21, 0,12,30.00,45.00,SummerDesignDay
9,84787107.0742141
1135,0.0
1166,203863029.59107
2,1, 7,21, 0,12,45.00,60.00,SummerDesignDay
9,84787107.0742141
1135,0.0
1166,205593216.209195
2,1, 7,21, 0,13, 0.00,15.00,SummerDesignDay
9,84787107.0742141
1135,0.0
1166,207023859.956376
2,1, 7,21, 0,13,15.00,30.00,SummerDesignDay
9,84787107.0742141
1135,0.0
1166,208482818.846532
2,1, 7,21, 0,13,30.00,45.00,SummerDesignDay
9,84787107.0742141
1135,0.0
1166,209965278.806035
2,1, 7,21, 0,13,45.00,60.00,SummerDesignDay
9,84787107.0742141
1135,0.0
1166,211462491.590448
2,1, 7,21, 0,14, 0.00,15.00,SummerDesignDay
9,84787107.0742141
1135,0.0
1166,212477975.322302
2,1, 7,21, 0,14,15.00,30.00,SummerDesignDay
9,84787107.0742141
1135,0.0
1166,213506742.193868
2,1, 7,21, 0,14,30.00,45.00,SummerDesignDay
9,84787107.0742141
1135,0.0
1166,214541278.54936
2,1, 7,21, 0,14,45.00,60.00,SummerDesignDay
9,84787107.0742141
1135,0.0
1166,215758071.564118
2,1, 7,21, 0,15, 0.00,15.00,SummerDesignDay
9,84787107.0742141
1135,0.0
1166,216399104.229352
2,1, 7,21, 0,15,15.00,30.00,SummerDesignDay
9,84787107.0742141
1135,0.0
1166,217149086.12489
2,1, 7,21, 0,15,30.00,45.00,SummerDesignDay
9,84787107.0742141
1135,0.0
1166,217951827.533063
2,1, 7,21, 0,15,45.00,60.00,SummerDesignDay
9,84787107.0742141
1135,0.0
1166,218738731.375604
2,1, 7,21, 0,16, 0.00,15.00,SummerDesignDay
9,84787107.0742141
1135,0.0
1166,218566249.359384
2,1, 7,21, 0,16,15.00,30.00,SummerDesignDay
9,84787107.0742141
1135,0.0
1166,218380143.842719
2,1, 7,21, 0,16,30.00,45.00,SummerDesignDay
9,84787107.0742141
1135,0.0
1166,218160195.865058
2,1, 7,21, 0,16,45.00,60.00,SummerDesignDay
9,84787107.0742141
1135,0.0
1166,217902663.598353
2,1, 7,21, 0,17, 0.00,15.00,SummerDesignDay
9,84787107.0742141
1135,0.0
1166,217235903.459093
2,1, 7,21, 0,17,15.00,30.00,SummerDesignDay
9,84787107.0742141
1135,0.0
1166,216506145.266278
2,1, 7,21, 0,17,30.00,45.00,SummerDesignDay
9,84787107.0742141
1135,0.0
1166,215719723.108162
2,1, 7,21, 0,17,45.00,60.00,SummerDesignDay
9,84787107.0742141
1135,0.0
1166,214837012.581429
2,1, 7,21, 0,18, 0.00,15.00,SummerDesignDay
9,84787107.0742141
1135,0.0
1166,213503765.246592
2,1, 7,21, 0,18,15.00,30.00,SummerDesignDay
9,84787107.0742141
1135,0.0
1166,211897192.30689
2,1, 7,21, 0,18,30.00,45.00,SummerDesignDay
9,84787107.0742141
1135,0.0
1166,210177880.793307
2,1, 7,21, 0,18,45.00,60.00,SummerDesignDay
9,84787107.0742141
1135,0.0
1166,208282415.22914
2,1, 7,21, 0,19, 0.00,15.00,SummerDesignDay
9,84787107.0742141
1135,0.0
1166,205336792.738103
2,1, 7,21, 0,19,15.00,30.00,SummerDesignDay
9,84787107.0742141
1135,0.0
1166,202157111.38464
2,1, 7,21, 0,19,30.00,45.00,SummerDesignDay
9,84787107.0742141
1135,0.0
1166,198586468.553995
2,1, 7,21, 0,19,45.00,60.00,SummerDesignDay
9,84787107.0742141
1135,0.0
1166,194547185.021176
2,1, 7,21, 0,20, 0.00,15.00,SummerDesignDay
9,84787107.0742141
1135,0.0
1166,191115003.682937
2,1, 7,21, 0,20,15.00,30.00,SummerDesignDay
9,84787107.0742141
1135,0.0
1166,188157488.839732
2,1, 7,21, 0,20,30.00,45.00,SummerDesignDay
9,84787107.0742141
1135,0.0
1166,185586183.737658
2,1, 7,21, 0,20,45.00,60.00,SummerDesignDay
9,84787107.0742141
1135,0.0
1166,183160483.956284
2,1, 7,21, 0,21, 0.00,15.00,SummerDesignDay
9,84787107.0742141
1135,0.0
1166,181128340.588236
2,1, 7,21, 0,21,15.00,30.00,SummerDesignDay
9,84787107.0742141
1135,0.0
1166,179126128.377807
2,1, 7,21, 0,21,30.00,45.00,SummerDesignDay
9,84787107.0742141
1135,0.0
1166,177144362.088859
2,1, 7,21, 0,21,45.00,60.00,SummerDesignDay
9,84787107.0742141
1135,0.0
1166,175184074.713627
2,1, 7,21, 0,22, 0.00,15.00,SummerDesignDay
9,84787107.0742141
1135,0.0
1166,173246514.780865
2,1, 7,21, 0,22,15.00,30.00,SummerDesignDay
9,84787107.0742141
1135,0.0
1166,171315460.738199
2,1, 7,21, 0,22,30.00,45.00,SummerDesignDay
9,84787107.0742141
1135,0.0
1166,169396389.135488
2,1, 7,21, 0,22,45.00,60.00,SummerDesignDay
9,84787107.0742141
1135,0.0
1166,167486206.271947
2,1, 7,21, 0,23, 0.00,15.00,SummerDesignDay
9,84787107.0742141
1135,0.0
1166,48806548.7606362
2,1, 7,21, 0,23,15.00,30.00,SummerDesignDay
9,84787107.0742141
1135,0.0
1166,62818998.1948866
2,1, 7,21, 0,23,30.00,45.00,SummerDesignDay
9,84787107.0742141
1135,0.0
1166,67060077.7927868
2,1, 7,21, 0,23,45.00,60.00,SummerDesignDay
9,84787107.0742141
1135,0.0
1166,70989816.589456
2,1, 7,21, 0,24, 0.00,15.00,SummerDesignDay
9,84787107.0742141
1135,0.0
1166,72778000.3306041
2,1, 7,21, 0,24,15.00,30.00,SummerDesignDay
9,84787107.0742141
1135,0.0
1166,69892246.9356516
2,1, 7,21, 0,24,30.00,45.00,SummerDesignDay
9,84787107.0742141
1135,0.0
1166,70179305.3752874
2,1, 7,21, 0,24,45.00,60.00,SummerDesignDay
9,84787107.0742141
1135,0.0
1166,70001233.706912
1,CAIRO ANN CLG .4% CONDNS DP=>MDB,  40.78, -73.96,  -5.00,  40.00
2,1, 7,21, 0, 1, 0.00,15.00,SummerDesignDay
9,84787107.0742141
1135,0.0
1166,43217918.660558
2,1, 7,21, 0, 1,15.00,30.00,SummerDesignDay
9,84787107.0742141
1135,0.0
1166,41376523.1137268
2,1, 7,21, 0, 1,30.00,45.00,SummerDesignDay
9,84787107.0742141
1135,0.0
1166,39808694.6669995
2,1, 7,21, 0, 1,45.00,60.00,SummerDesignDay
9,84787107.0742141
1135,0.0
1166,38571504.1729757
2,1, 7,21, 0, 2, 0.00,15.00,SummerDesignDay
9,84787107.0742141
1135,0.0
1166,37637550.3377921
2,1, 7,21, 0, 2,15.00,30.00,SummerDesignDay
9,84787107.0742141
1135,0.0
1166,36882802.5163301
2,1, 7,21, 0, 2,30.00,45.00,SummerDesignDay
9,84787107.0742141
1135,0.0
1166,36211511.1351364
2,1, 7,21, 0, 2,45.00,60.00,SummerDesignDay
9,84787107.0742141
1135,0.0
1166,35580483.1920043
2,1, 7,21, 0, 3, 0.00,15.00,SummerDesignDay
9,84787107.0742141
1135,0.0
1166,35064413.837899
2,1, 7,21, 0, 3,15.00,30.00,SummerDesignDay
9,84787107.0742141
1135,0.0
1166,34572102.5114085
2,1, 7,21, 0, 3,30.00,45.00,SummerDesignDay
9,84787107.0742141
1135,0.0
1166,34095098.0332648
2,1, 7,21, 0, 3,45.00,60.00,SummerDesignDay
9,84787107.0742141
1135,0.0
1166,33630145.3891039
2,1, 7,21, 0, 4, 0.00,15.00,SummerDesignDay
9,84787107.0742141
1135,0.0
1166,33173522.507109
2,1, 7,21, 0, 4,15.00,30.00,SummerDesignDay
9,84787107.0742141
1135,0.0
1166,32755827.8220804
2,1, 7,21, 0, 4,30.00,45.00,SummerDesignDay
9,84787107.0742141
1135,0.0
1166,32358123.180453
2,1, 7,21, 0, 4,45.00,60.00,SummerDesignDay
9,84787107.0742141
1135,0.0
1166,31964555.0648007
2,1, 7,21, 0, 5, 0.00,15.00,SummerDesignDay
9,84787107.0742141
1135,0.0
1166,31621597.1699434
2,1, 7,21, 0, 5,15.00,30.00,SummerDesignDay
9,84787107.0742141
1135,0.0
1166,31290139.3347501
2,1, 7,21, 0, 5,30.00,45.00,SummerDesignDay
9,84787107.0742141
1135,0.0
1166,30966758.167475
2,1, 7,21, 0, 5,45.00,60.00,SummerDesignDay
9,84787107.0742141
1135,0.0
1166,31101747.1571583
2,1, 7,21, 0, 6, 0.00,15.00,SummerDesignDay
9,84787107.0742141
1135,0.0
1166,31874166.1789105
2,1, 7,21, 0, 6,15.00,30.00,SummerDesignDay
9,84787107.0742141
1135,0.0
1166,32797988.8070658
2,1, 7,21, 0, 6,30.00,45.00,SummerDesignDay
9,84787107.0742141
1135,0.0
1166,33747175.8544494
2,1, 7,21, 0, 6,45.00,60.00,SummerDesignDay
9,84787107.0742141
1135,0.0
1166,35017204.079863
2,1, 7,21, 0, 7, 0.00,15.00,SummerDesignDay
9,84787107.0742141
1135,0.0
1166,125054620.056389
2,1, 7,21, 0, 7,15.00,30.00,SummerDesignDay
9,84787107.0742141
1135,0.0
1166,75970030.3419076
2,1, 7,21, 0, 7,30.00,45.00,SummerDesignDay
9,84787107.0742141
1135,0.0
1166,100167474.275645
2,1, 7,21, 0, 7,45.00,60.00,SummerDesignDay
9,84787107.0742141
1135,0.0
1166,83304197.2307952
2,1, 7,21, 0, 8, 0.00,15.00,SummerDesignDay
9,84787107.0742141
1135,0.0
1166,90186251.9939014
2,1, 7,21, 0, 8,15.00,30.00,SummerDesignDay
9,84787107.0742141
1135,0.0
1166,97043360.5198189
2,1, 7,21, 0, 8,30.00,45.00,SummerDesignDay
9,84787107.0742141
1135,0.0
1166,102768590.876493
2,1, 7,21, 0, 8,45.00,60.00,SummerDesignDay
9,84787107.0742141
1135,0.0
1166,108004034.60716
2,1, 7,21, 0, 9, 0.00,15.00,SummerDesignDay
9,84787107.0742141
1135,0.0
1166,113700975.73839
2,1, 7,21, 0, 9,15.00,30.00,SummerDesignDay
9,84787107.0742141
1135,0.0
1166,119422247.762895
2,1, 7,21, 0, 9,30.00,45.00,SummerDesignDay
9,84787107.0742141
1135,0.0
1166,125283295.150812
2,1, 7,21, 0, 9,45.00,60.00,SummerDesignDay
9,84787107.0742141
1135,0.0
1166,131191160.194741
2,1, 7,21, 0,10, 0.00,15.00,SummerDesignDay
9,84787107.0742141
1135,0.0
1166,136705043.929796
2,1, 7,21, 0,10,15.00,30.00,SummerDesignDay
9,84787107.0742141
1135,0.0
1166,142195302.379102
2,1, 7,21, 0,10,30.00,45.00,SummerDesignDay
9,84787107.0742141
1135,0.0
1166,147588997.976659
2,1, 7,21, 0,10,45.00,60.00,SummerDesignDay
9,84787107.0742141
1135,0.0
1166,152915401.74785
2,1, 7,21, 0,11, 0.00,15.00,SummerDesignDay
9,84787107.0742141
1135,0.0
1166,158310333.487098
2,1, 7,21, 0,11,15.00,30.00,SummerDesignDay
9,84787107.0742141
1135,0.0
1166,163267656.144944
2,1, 7,21, 0,11,30.00,45.00,SummerDesignDay
9,84787107.0742141
1135,0.0
1166,167176079.392957
2,1, 7,21, 0,11,45.00,60.00,SummerDesignDay
9,84787107.0742141
1135,0.0
1166,170830077.952201
2,1, 7,21, 0,12, 0.00,15.00,SummerDesignDay
9,84787107.0742141
1135,0.0
1166,173088684.25429
2,1, 7,21, 0,12,15.00,30.00,SummerDesignDay
9,84787107.0742141
1135,0.0
1166,175297231.989264
2,1, 7,21, 0,12,30.00,45.00,SummerDesignDay
9,84787107.0742141
1135,0.0
1166,177555774.203847
2,1, 7,21, 0,12,45.00,60.00,SummerDesignDay
9,84787107.0742141
1135,0.0
1166,179745473.169259
2,1, 7,21, 0,13, 0.00,15.00,SummerDesignDay
9,84787107.0742141
1135,0.0
1166,181403221.485713
2,1, 7,21, 0,13,15.00,30.00,SummerDesignDay
9,84787107.0742141
1135,0.0
1166,183077062.732719
2,1, 7,21, 0,13,30.00,45.00,SummerDesignDay
9,84787107.0742141
1135,0.0
1166,184781619.154352
2,1, 7,21, 0,13,45.00,60.00,SummerDesignDay
9,84787107.0742141
1135,0.0
1166,186493557.44761
2,1, 7,21, 0,14, 0.00,15.00,SummerDesignDay
9,84787107.0742141
1135,0.0
1166,187500251.640292
2,1, 7,21, 0,14,15.00,30.00,SummerDesignDay
9,84787107.0742141
1135,0.0
1166,188574551.14593
2,1, 7,21, 0,14,30.00,45.00,SummerDesignDay
9,84787107.0742141
1135,0.0
1166,189703973.535621
2,1, 7,21, 0,14,45.00,60.00,SummerDesignDay
9,84787107.0742141
1135,0.0
1166,191078711.989509
2,1, 7,21, 0,15, 0.00,15.00,SummerDesignDay
9,84787107.0742141
1135,0.0
1166,191572937.865793
2,1, 7,21, 0,15,15.00,30.00,SummerDesignDay
9,84787107.0742141
1135,0.0
1166,192277898.531205
2,1, 7,21, 0,15,30.00,45.00,SummerDesignDay
9,84787107.0742141
1135,0.0
1166,193095666.565829
2,1, 7,21, 0,15,45.00,60.00,SummerDesignDay
9,84787107.0742141
1135,0.0
1166,193923100.731306
2,1, 7,21, 0,16, 0.00,15.00,SummerDesignDay
9,84787107.0742141
1135,0.0
1166,193376951.982221
2,1, 7,21, 0,16,15.00,30.00,SummerDesignDay
9,84787107.0742141
1135,0.0
1166,192956810.10156
2,1, 7,21, 0,16,30.00,45.00,SummerDesignDay
9,84787107.0742141
1135,0.0
1166,192648858.718375
2,1, 7,21, 0,16,45.00,60.00,SummerDesignDay
9,84787107.0742141
1135,0.0
1166,192326349.267925
2,1, 7,21, 0,17, 0.00,15.00,SummerDesignDay
9,84787107.0742141
1135,0.0
1166,191469778.857121
2,1, 7,21, 0,17,15.00,30.00,SummerDesignDay
9,84787107.0742141
1135,0.0
1166,190593886.292252
2,1, 7,21, 0,17,30.00,45.00,SummerDesignDay
9,84787107.0742141
1135,0.0
1166,189703470.183182
2,1, 7,21, 0,17,45.00,60.00,SummerDesignDay
9,84787107.0742141
1135,0.0
1166,188729819.739124
2,1, 7,21, 0,18, 0.00,15.00,SummerDesignDay
9,84787107.0742141
1135,0.0
1166,187166294.392244
2,1, 7,21, 0,18,15.00,30.00,SummerDesignDay
9,84787107.0742141
1135,0.0
1166,185332064.077902
2,1, 7,21, 0,18,30.00,45.00,SummerDesignDay
9,84787107.0742141
1135,0.0
1166,183394068.097244
2,1, 7,21, 0,18,45.00,60.00,SummerDesignDay
9,84787107.0742141
1135,0.0
1166,181265735.046794
2,1, 7,21, 0,19, 0.00,15.00,SummerDesignDay
9,84787107.0742141
1135,0.0
1166,177714561.146355
2,1, 7,21, 0,19,15.00,30.00,SummerDesignDay
9,84787107.0742141
1135,0.0
1166,173926811.016021
2,1, 7,21, 0,19,30.00,45.00,SummerDesignDay
9,84787107.0742141
1135,0.0
1166,169630009.078738
2,1, 7,21, 0,19,45.00,60.00,SummerDesignDay
9,84787107.0742141
1135,0.0
1166,164866987.410157
2,1, 7,21, 0,20, 0.00,15.00,SummerDesignDay
9,84787107.0742141
1135,0.0
1166,160123907.511129
2,1, 7,21, 0,20,15.00,30.00,SummerDesignDay
9,84787107.0742141
1135,0.0
1166,155125416.815145
2,1, 7,21, 0,20,30.00,45.00,SummerDesignDay
9,84787107.0742141
1135,0.0
1166,150302710.837924
2,1, 7,21, 0,20,45.00,60.00,SummerDesignDay
9,84787107.0742141
1135,0.0
1166,145614504.586377
2,1, 7,21, 0,21, 0.00,15.00,SummerDesignDay
9,84787107.0742141
1135,0.0
1166,141494503.005003
2,1, 7,21, 0,21,15.00,30.00,SummerDesignDay
9,84787107.0742141
1135,0.0
1166,137529161.543449
2,1, 7,21, 0,21,30.00,45.00,SummerDesignDay
9,84787107.0742141
1135,0.0
1166,133675234.660809
2,1, 7,21, 0,21,45.00,60.00,SummerDesignDay
9,84787107.0742141
1135,0.0
1166,129884356.78837
2,1, 7,21, 0,22, 0.00,15.00,SummerDesignDay
9,84787107.0742141
1135,0.0
1166,126139927.325127
2,1, 7,21, 0,22,15.00,30.00,SummerDesignDay
9,84787107.0742141
1135,0.0
1166,122433272.680057
2,1, 7,21, 0,22,30.00,45.00,SummerDesignDay
9,84787107.0742141
1135,0.0
1166,118765207.568794
2,1, 7,21, 0,22,45.00,60.00,SummerDesignDay
9,84787107.0742141
1135,0.0
1166,115130122.42065
2,1, 7,21, 0,23, 0.00,15.00,SummerDesignDay
9,84787107.0742141
1135,0.0
1166,30826472.0059976
2,1, 7,21, 0,23,15.00,30.00,SummerDesignDay
9,84787107.0742141
1135,0.0
1166,38131065.8283423
2,1, 7,21, 0,23,30.00,45.00,SummerDesignDay
9,84787107.0742141
1135,0.0
1166,44474746.1114599
2,1, 7,21, 0,23,45.00,60.00,SummerDesignDay
9,84787107.0742141
1135,0.0
1166,46550167.5222561
2,1, 7,21, 0,24, 0.00,15.00,SummerDesignDay
9,84787107.0742141
1135,0.0
1166,48572358.2202001
2,1, 7,21, 0,24,15.00,30.00,SummerDesignDay
9,84787107.0742141
1135,0.0
1166,48368445.4055484
2,1, 7,21, 0,24,30.00,45.00,SummerDesignDay
9,84787107.0742141
1135,0.0
1166,46533215.3868586
2,1, 7,21, 0,24,45.00,60.00,SummerDesignDay
9,84787107.0742141
1135,0.0
1166,44108876.3311105
1,CAIRO ANN CLG .4% CONDNS ENTH=>MDB,  40.78, -73.96,  -5.00,  40.00
2,1, 7,21, 0, 1, 0.00,15.00,SummerDesignDay
9,84787107.0742141
1135,0.0
1166,65834570.2648092
2,1, 7,21, 0, 1,15.00,30.00,SummerDesignDay
9,84787107.0742141
1135,0.0
1166,63442474.088208
2,1, 7,21, 0, 1,30.00,45.00,SummerDesignDay
9,84787107.0742141
1135,0.0
1166,61392912.5418917
2,1, 7,21, 0, 1,45.00,60.00,SummerDesignDay
9,84787107.0742141
1135,0.0
1166,59948320.2467195
2,1, 7,21, 0, 2, 0.00,15.00,SummerDesignDay
9,84787107.0742141
1135,0.0
1166,58871876.1270777
2,1, 7,21, 0, 2,15.00,30.00,SummerDesignDay
9,84787107.0742141
1135,0.0
1166,58014184.5829591
2,1, 7,21, 0, 2,30.00,45.00,SummerDesignDay
9,84787107.0742141
1135,0.0
1166,57254364.9424835
2,1, 7,21, 0, 2,45.00,60.00,SummerDesignDay
9,84787107.0742141
1135,0.0
1166,56518728.7707175
2,1, 7,21, 0, 3, 0.00,15.00,SummerDesignDay
9,84787107.0742141
1135,0.0
1166,55879934.976205
2,1, 7,21, 0, 3,15.00,30.00,SummerDesignDay
9,84787107.0742141
1135,0.0
1166,55288394.2644741
2,1, 7,21, 0, 3,30.00,45.00,SummerDesignDay
9,84787107.0742141
1135,0.0
1166,54730320.0985229
2,1, 7,21, 0, 3,45.00,60.00,SummerDesignDay
9,84787107.0742141
1135,0.0
1166,54178308.6732022
2,1, 7,21, 0, 4, 0.00,15.00,SummerDesignDay
9,84787107.0742141
1135,0.0
1166,53658733.1056252
2,1, 7,21, 0, 4,15.00,30.00,SummerDesignDay
9,84787107.0742141
1135,0.0
1166,53165964.2162357
2,1, 7,21, 0, 4,30.00,45.00,SummerDesignDay
9,84787107.0742141
1135,0.0
1166,52685207.5098302
2,1, 7,21, 0, 4,45.00,60.00,SummerDesignDay
9,84787107.0742141
1135,0.0
1166,52215287.3881336
2,1, 7,21, 0, 5, 0.00,15.00,SummerDesignDay
9,84787107.0742141
1135,0.0
1166,51809888.6744833
2,1, 7,21, 0, 5,15.00,30.00,SummerDesignDay
9,84787107.0742141
1135,0.0
1166,51422239.2884566
2,1, 7,21, 0, 5,30.00,45.00,SummerDesignDay
9,84787107.0742141
1135,0.0
1166,51047994.4007308
2,1, 7,21, 0, 5,45.00,60.00,SummerDesignDay
9,84787107.0742141
1135,0.0
1166,51173332.3027407
2,1, 7,21, 0, 6, 0.00,15.00,SummerDesignDay
9,84787107.0742141
1135,0.0
1166,52020525.7217515
2,1, 7,21, 0, 6,15.00,30.00,SummerDesignDay
9,84787107.0742141
1135,0.0
1166,53037487.1544704
2,1, 7,21, 0, 6,30.00,45.00,SummerDesignDay
9,84787107.0742141
1135,0.0
1166,53976111.9658558
2,1, 7,21, 0, 6,45.00,60.00,SummerDesignDay
9,84787107.0742141
1135,0.0
1166,54801127.0594365
2,1, 7,21, 0, 7, 0.00,15.00,SummerDesignDay
9,84787107.0742141
1135,0.0
1166,189247380.809504
2,1, 7,21, 0, 7,15.00,30.00,SummerDesignDay
9,84787107.0742141
1135,0.0
1166,80396882.0760262
2,1, 7,21, 0, 7,30.00,45.00,SummerDesignDay
9,84787107.0742141
1135,0.0
1166,170354202.658295
2,1, 7,21, 0, 7,45.00,60.00,SummerDesignDay
9,84787107.0742141
1135,0.0
1166,157025779.208578
2,1, 7,21, 0, 8, 0.00,15.00,SummerDesignDay
9,84787107.0742141
1135,0.0
1166,157200505.29509
2,1, 7,21, 0, 8,15.00,30.00,SummerDesignDay
9,84787107.0742141
1135,0.0
1166,160828318.316348
2,1, 7,21, 0, 8,30.00,45.00,SummerDesignDay
9,84787107.0742141
1135,0.0
1166,166667266.406783
2,1, 7,21, 0, 8,45.00,60.00,SummerDesignDay
9,84787107.0742141
1135,0.0
1166,173039920.77611
2,1, 7,21, 0, 9, 0.00,15.00,SummerDesignDay
9,84787107.0742141
1135,0.0
1166,179638407.909644
2,1, 7,21, 0, 9,15.00,30.00,SummerDesignDay
9,84787107.0742141
1135,0.0
1166,186275427.905316
2,1, 7,21, 0, 9,30.00,45.00,SummerDesignDay
9,84787107.0742141
1135,0.0
1166,193119541.713818
2,1, 7,21, 0, 9,45.00,60.00,SummerDesignDay
9,84787107.0742141
1135,0.0
1166,200154943.19854
2,1, 7,21, 0,10, 0.00,15.00,SummerDesignDay
9,84787107.0742141
1135,0.0
1166,207591662.186754
2,1, 7,21, 0,10,15.00,30.00,SummerDesignDay
9,84787107.0742141
1135,0.0
1166,215271347.117453
2,1, 7,21, 0,10,30.00,45.00,SummerDesignDay
9,84787107.0742141
1135,0.0
1166,222804665.992178
2,1, 7,21, 0,10,45.00,60.00,SummerDesignDay
9,84787107.0742141
1135,0.0
1166,230182588.600169
2,1, 7,21, 0,11, 0.00,15.00,SummerDesignDay
9,84787107.0742141
1135,0.0
1166,237047016.771117
2,1, 7,21, 0,11,15.00,30.00,SummerDesignDay
9,84787107.0742141
1135,0.0
1166,244183838.315121
2,1, 7,21, 0,11,30.00,45.00,SummerDesignDay
9,84787107.0742141
1135,0.0
1166,251438258.480745
2,1, 7,21, 0,11,45.00,60.00,SummerDesignDay
9,84787107.0742141
1135,0.0
1166,259106146.511817
2,1, 7,21, 0,12, 0.00,15.00,SummerDesignDay
9,84787107.0742141
1135,0.0
1166,265453137.357298
2,1, 7,21, 0,12,15.00,30.00,SummerDesignDay
9,84787107.0742141
1135,0.0
1166,271279715.341411
2,1, 7,21, 0,12,30.00,45.00,SummerDesignDay
9,84787107.0742141
1135,0.0
1166,276748487.768451
2,1, 7,21, 0,12,45.00,60.00,SummerDesignDay
9,84787107.0742141
1135,0.0
1166,282135851.422031
2,1, 7,21, 0,13, 0.00,15.00,SummerDesignDay
9,84787107.0742141
1135,0.0
1166,286982202.234403
2,1, 7,21, 0,13,15.00,30.00,SummerDesignDay
9,84787107.0742141
1135,0.0
1166,291668030.786695
2,1, 7,21, 0,13,30.00,45.00,SummerDesignDay
9,84787107.0742141
1135,0.0
1166,296239015.553636
2,1, 7,21, 0,13,45.00,60.00,SummerDesignDay
9,84787107.0742141
1135,0.0
1166,300800451.8331
2,1, 7,21, 0,14, 0.00,15.00,SummerDesignDay
9,84787107.0742141
1135,0.0
1166,304478200.772633
2,1, 7,21, 0,14,15.00,30.00,SummerDesignDay
9,84787107.0742141
1135,0.0
1166,307814099.207107
2,1, 7,21, 0,14,30.00,45.00,SummerDesignDay
9,84787107.0742141
1135,0.0
1166,310906180.067964
2,1, 7,21, 0,14,45.00,60.00,SummerDesignDay
9,84787107.0742141
1135,0.0
1166,314231025.026532
2,1, 7,21, 0,15, 0.00,15.00,SummerDesignDay
9,84787107.0742141
1135,0.0
1166,316372151.822266
2,1, 7,21, 0,15,15.00,30.00,SummerDesignDay
9,84787107.0742141
1135,0.0
1166,317967039.772771
2,1, 7,21, 0,15,30.00,45.00,SummerDesignDay
9,84787107.0742141
1135,0.0
1166,319133802.111598
2,1, 7,21, 0,15,45.00,60.00,SummerDesignDay
9,84787107.0742141
1135,0.0
1166,320089882.342072
2,1, 7,21, 0,16, 0.00,15.00,SummerDesignDay
9,84787107.0742141
1135,0.0
1166,319195385.296784
2,1, 7,21, 0,16,15.00,30.00,SummerDesignDay
9,84787107.0742141
1135,0.0
1166,317498878.947403
2,1, 7,21, 0,16,30.00,45.00,SummerDesignDay
9,84787107.0742141
1135,0.0
1166,315232721.662975
2,1, 7,21, 0,16,45.00,60.00,SummerDesignDay
9,84787107.0742141
1135,0.0
1166,312744401.828736
2,1, 7,21, 0,17, 0.00,15.00,SummerDesignDay
9,84787107.0742141
1135,0.0
1166,309551956.468867
2,1, 7,21, 0,17,15.00,30.00,SummerDesignDay
9,84787107.0742141
1135,0.0
1166,306072206.723533
2,1, 7,21, 0,17,30.00,45.00,SummerDesignDay
9,84787107.0742141
1135,0.0
1166,302442904.80161
2,1, 7,21, 0,17,45.00,60.00,SummerDesignDay
9,84787107.0742141
1135,0.0
1166,298683905.82691
2,1, 7,21, 0,18, 0.00,15.00,SummerDesignDay
9,84787107.0742141
1135,0.0
1166,294220644.591592
2,1, 7,21, 0,18,15.00,30.00,SummerDesignDay
9,84787107.0742141
1135,0.0
1166,289200033.364345
2,1, 7,21, 0,18,30.00,45.00,SummerDesignDay
9,84787107.0742141
1135,0.0
1166,283972066.36471
2,1, 7,21, 0,18,45.00,60.00,SummerDesignDay
9,84787107.0742141
1135,0.0
1166,278583816.211548
2,1, 7,21, 0,19, 0.00,15.00,SummerDesignDay
9,84787107.0742141
1135,0.0
1166,271526920.544991
2,1, 7,21, 0,19,15.00,30.00,SummerDesignDay
9,84787107.0742141
1135,0.0
1166,263655311.371674
2,1, 7,21, 0,19,30.00,45.00,SummerDesignDay
9,84787107.0742141
1135,0.0
1166,254937314.878766
2,1, 7,21, 0,19,45.00,60.00,SummerDesignDay
9,84787107.0742141
1135,0.0
1166,245709382.045191
2,1, 7,21, 0,20, 0.00,15.00,SummerDesignDay
9,84787107.0742141
1135,0.0
1166,237854613.460625
2,1, 7,21, 0,20,15.00,30.00,SummerDesignDay
9,84787107.0742141
1135,0.0
1166,231264095.743182
2,1, 7,21, 0,20,30.00,45.00,SummerDesignDay
9,84787107.0742141
1135,0.0
1166,225568868.917069
2,1, 7,21, 0,20,45.00,60.00,SummerDesignDay
9,84787107.0742141
1135,0.0
1166,220142840.730925
2,1, 7,21, 0,21, 0.00,15.00,SummerDesignDay
9,84787107.0742141
1135,0.0
1166,215306661.427526
2,1, 7,21, 0,21,15.00,30.00,SummerDesignDay
9,84787107.0742141
1135,0.0
1166,210672313.555623
2,1, 7,21, 0,21,30.00,45.00,SummerDesignDay
9,84787107.0742141
1135,0.0
1166,206218164.258031
2,1, 7,21, 0,21,45.00,60.00,SummerDesignDay
9,84787107.0742141
1135,0.0
1166,201846975.345806
2,1, 7,21, 0,22, 0.00,15.00,SummerDesignDay
9,84787107.0742141
1135,0.0
1166,197532193.403536
2,1, 7,21, 0,22,15.00,30.00,SummerDesignDay
9,84787107.0742141
1135,0.0
1166,193273063.806441
2,1, 7,21, 0,22,30.00,45.00,SummerDesignDay
9,84787107.0742141
1135,0.0
1166,189068720.597383
2,1, 7,21, 0,22,45.00,60.00,SummerDesignDay
9,84787107.0742141
1135,0.0
1166,184909005.554895
2,1, 7,21, 0,23, 0.00,15.00,SummerDesignDay
9,84787107.0742141
1135,0.0
1166,48542939.8607655
2,1, 7,21, 0,23,15.00,30.00,SummerDesignDay
9,84787107.0742141
1135,0.0
1166,63294881.7989261
2,1, 7,21, 0,23,30.00,45.00,SummerDesignDay
9,84787107.0742141
1135,0.0
1166,69639141.5988627
2,1, 7,21, 0,23,45.00,60.00,SummerDesignDay
9,84787107.0742141
1135,0.0
1166,70475657.3539142
2,1, 7,21, 0,24, 0.00,15.00,SummerDesignDay
9,84787107.0742141
1135,0.0
1166,70816590.013841
2,1, 7,21, 0,24,15.00,30.00,SummerDesignDay
9,84787107.0742141
1135,0.0
1166,71135392.8892946
2,1, 7,21, 0,24,30.00,45.00,SummerDesignDay
9,84787107.0742141
1135,0.0
1166,70644024.1277342
2,1, 7,21, 0,24,45.00,60.00,SummerDesignDay
9,84787107.0742141
1135,0.0
1166,67971292.599723
1,CAIRO ANN CLG .4% CONDNS WB=>MDB,  40.78, -73.96,  -5.00,  40.00
2,1, 7,21, 0, 1, 0.00,15.00,SummerDesignDay
9,84787107.0742141
1135,0.0
1166,63179653.4406266
2,1, 7,21, 0, 1,15.00,30.00,SummerDesignDay
9,84787107.0742141
1135,0.0
1166,61176299.1897825
2,1, 7,21, 0, 1,30.00,45.00,SummerDesignDay
9,84787107.0742141
1135,0.0
1166,59220309.4970727
2,1, 7,21, 0, 1,45.00,60.00,SummerDesignDay
9,84787107.0742141
1135,0.0
1166,57716583.2264453
2,1, 7,21, 0, 2, 0.00,15.00,SummerDesignDay
9,84787107.0742141
1135,0.0
1166,56754798.0303701
2,1, 7,21, 0, 2,15.00,30.00,SummerDesignDay
9,84787107.0742141
1135,0.0
1166,56037765.7148169
2,1, 7,21, 0, 2,30.00,45.00,SummerDesignDay
9,84787107.0742141
1135,0.0
1166,55416026.7845174
2,1, 7,21, 0, 2,45.00,60.00,SummerDesignDay
9,84787107.0742141
1135,0.0
1166,54822726.918048
2,1, 7,21, 0, 3, 0.00,15.00,SummerDesignDay