Program Version,EnergyPlus, Version 8.5.0-c87e61b44b, YMD=2018.01.11 21:56
1,5,Environment Title[],Latitude[deg],Longitude[deg],Time Zone[],Elevation[m]
2,6,Day of Simulation[],Month[],Day of Month[],DST Indicator[1=yes 0=no],Hour[],StartMinute[],EndMinute[],DayType
3,3,Cumulative Day of Simulation[],Month[],Day of Month[],DST Indicator[1=yes 0=no],DayType  ! When Daily Meters Requested
4,2,Cumulative Days of Simulation[],Month[]  ! When Monthly Meters Requested
5,1,Cumulative Days of Simulation[] ! When Run Period Meters Requested
9,1,Electricity:Facility [J] !TimeStep
715,1,DistrictCooling:Facility [J] !TimeStep
684,1,DistrictHeating:Facility [J] !TimeStep
End of Data Dictionary
1,OSLO/FORNEBU ANN CLG .4% CONDNS DB=>MWB,  59.90,  10.62,   1.00,  17.00
2,1, 7,21, 0, 1, 0.00,15.00,SummerDesignDay
9,16740033.4800669
684,0.0
715,6330992.87820608
2,1, 7,21, 0, 1,15.00,30.00,SummerDesignDay
9,16740033.4800669
684,0.0
715,6177655.41293913
2,1, 7,21, 0, 1,30.00,45.00,SummerDesignDay
9,16740033.4800669
684,0.0
715,6015686.63169002
2,1, 7,21, 0, 1,45.00,60.00,SummerDesignDay
9,16740033.4800669
684,0.0
715,5850990.35594466
2,1, 7,21, 0, 2, 0.00,15.00,SummerDesignDay
9,16740033.4800669
684,0.0
715,5713566.09350375
2,1, 7,21, 0, 2,15.00,30.00,SummerDesignDay
9,16740033.4800669
684,0.0
715,5575280.08735568
2,1, 7,21, 0, 2,30.00,45.00,SummerDesignDay
9,16740033.4800669
684,0.0
715,5436675.55395669
2,1, 7,21, 0, 2,45.00,60.00,SummerDesignDay
9,16740033.4800669
684,0.0
715,5297169.96904756
2,1, 7,21, 0, 3, 0.00,15.00,SummerDesignDay
9,16740033.4800669
684,0.0
715,5170492.20553361
2,1, 7,21, 0, 3,15.00,30.00,SummerDesignDay
9,16740033.4800669
684,0.0
715,5044410.50627475
2,1, 7,21, 0, 3,30.00,45.00,SummerDesignDay
9,16740033.4800669
684,0.0
715,4917446.14732287
2,1, 7,21, 0, 3,45.00,60.00,SummerDesignDay
9,16740033.4800669
684,0.0
715,4790837.43074282
2,1, 7,21, 0, 4, 0.00,15.00,SummerDesignDay
9,16740033.4800669
684,0.0
715,4661799.02450023
2,1, 7,21, 0, 4,15.00,30.00,SummerDesignDay
9,16740033.4800669
684,0.0
715,4532206.81854648
2,1, 7,21, 0, 4,30.00,45.00,SummerDesignDay
9,16740033.4800669
684,0.0
715,4515274.3444712
2,1, 7,21, 0, 4,45.00,60.00,SummerDesignDay
9,16740033.4800669
684,0.0
715,4601780.55108205
2,1, 7,21, 0, 5, 0.00,15.00,SummerDesignDay
9,16740033.4800669
684,0.0
715,4823258.00558747
2,1, 7,21, 0, 5,15.00,30.00,SummerDesignDay
9,16740033.4800669
684,0.0
715,5152962.2890743
2,1, 7,21, 0, 5,30.00,45.00,SummerDesignDay
9,16740033.4800669
684,0.0
715,5449379.81146379
2,1, 7,21, 0, 5,45.00,60.00,SummerDesignDay
9,16740033.4800669
684,0.0
715,5709915.99103086
2,1, 7,21, 0, 6, 0.00,15.00,SummerDesignDay
9,16740033.4800669
684,0.0
715,6000939.20123755
2,1, 7,21, 0, 6,15.00,30.00,SummerDesignDay
9,16740033.4800669
684,0.0
715,6258666.50371235
2,1, 7,21, 0, 6,30.00,45.00,SummerDesignDay
9,16740033.4800669
684,0.0
715,6519384.00858553
2,1, 7,21, 0, 6,45.00,60.00,SummerDesignDay
9,16740033.4800669
684,0.0
715,6780500.34809832
2,1, 7,21, 0, 7, 0.00,15.00,SummerDesignDay
9,16740033.4800669
684,0.0
715,35979181.0884134
2,1, 7,21, 0, 7,15.00,30.00,SummerDesignDay
9,16740033.4800669
684,0.0
715,21499554.780637
2,1, 7,21, 0, 7,30.00,45.00,SummerDesignDay
9,16740033.4800669
684,0.0
715,28015598.8044921
2,1, 7,21, 0, 7,45.00,60.00,SummerDesignDay
9,16740033.4800669
684,0.0
715,22533423.8250684
2,1, 7,21, 0, 8, 0.00,15.00,SummerDesignDay
9,16740033.4800669
684,0.0
715,23017326.3177911
2,1, 7,21, 0, 8,15.00,30.00,SummerDesignDay
9,16740033.4800669
684,0.0
715,23501915.3837076
2,1, 7,21, 0, 8,30.00,45.00,SummerDesignDay
9,16740033.4800669
684,0.0
715,24561587.0994189
2,1, 7,21, 0, 8,45.00,60.00,SummerDesignDay
9,16740033.4800669
684,0.0
715,25758153.7460697
2,1, 7,21, 0, 9, 0.00,15.00,SummerDesignDay
9,16740033.4800669
684,0.0
715,26905458.7719976
2,1, 7,21, 0, 9,15.00,30.00,SummerDesignDay
9,16740033.4800669
684,0.0
715,28162337.6457985
2,1, 7,21, 0, 9,30.00,45.00,SummerDesignDay
9,16740033.4800669
684,0.0
715,29415834.2938883
2,1, 7,21, 0, 9,45.00,60.00,SummerDesignDay
9,16740033.4800669
684,0.0
715,31005011.5473679
2,1, 7,21, 0,10, 0.00,15.00,SummerDesignDay
9,16740033.4800669
684,0.0
715,32226610.3316404
2,1, 7,21, 0,10,15.00,30.00,SummerDesignDay
9,16740033.4800669
684,0.0
715,33554597.2707021
2,1, 7,21, 0,10,30.00,45.00,SummerDesignDay
9,16740033.4800669
684,0.0
715,34802274.8862465
2,1, 7,21, 0,10,45.00,60.00,SummerDesignDay
9,16740033.4800669
684,0.0
715,36001104.6003359
2,1, 7,21, 0,11, 0.00,15.00,SummerDesignDay
9,16740033.4800669
684,0.0
715,37032508.607844
2,1, 7,21, 0,11,15.00,30.00,SummerDesignDay
9,16740033.4800669
684,0.0
715,38019396.5746593
2,1, 7,21, 0,11,30.00,45.00,SummerDesignDay
9,16740033.4800669
684,0.0
715,38968302.8579703
2,1, 7,21, 0,11,45.00,60.00,SummerDesignDay
9,16740033.4800669
684,0.0
715,40009717.115267
2,1, 7,21, 0,12, 0.00,15.00,SummerDesignDay
9,16740033.4800669
684,0.0
715,40875792.8189445
2,1, 7,21, 0,12,15.00,30.00,SummerDesignDay
9,16740033.4800669
684,0.0
715,41769137.5094949
2,1, 7,21, 0,12,30.00,45.00,SummerDesignDay
9,16740033.4800669
684,0.0
715,42661086.6769402
2,1, 7,21, 0,12,45.00,60.00,SummerDesignDay
9,16740033.4800669
684,0.0
715,43535606.3683531
2,1, 7,21, 0,13, 0.00,15.00,SummerDesignDay
9,16740033.4800669
684,0.0
715,44259590.8537538
2,1, 7,21, 0,13,15.00,30.00,SummerDesignDay
9,16740033.4800669
684,0.0
715,44958233.7363873
2,1, 7,21, 0,13,30.00,45.00,SummerDesignDay
9,16740033.4800669
684,0.0
715,45638988.2354601
2,1, 7,21, 0,13,45.00,60.00,SummerDesignDay
9,16740033.4800669
684,0.0
715,46284635.1078473
2,1, 7,21, 0,14, 0.00,15.00,SummerDesignDay
9,16740033.4800669
684,0.0
715,46705228.0298421
2,1, 7,21, 0,14,15.00,30.00,SummerDesignDay
9,16740033.4800669
684,0.0
715,47074194.6821165
2,1, 7,21, 0,14,30.00,45.00,SummerDesignDay
9,16740033.4800669
684,0.0
715,47391176.0110304
2,1, 7,21, 0,14,45.00,60.00,SummerDesignDay
9,16740033.4800669
684,0.0
715,47700831.4818873
2,1, 7,21, 0,15, 0.00,15.00,SummerDesignDay
9,16740033.4800669
684,0.0
715,47847622.7573022
2,1, 7,21, 0,15,15.00,30.00,SummerDesignDay
9,16740033.4800669
684,0.0
715,48049199.1218971
2,1, 7,21, 0,15,30.00,45.00,SummerDesignDay
9,16740033.4800669
684,0.0
715,48258709.2298959
2,1, 7,21, 0,15,45.00,60.00,SummerDesignDay
9,16740033.4800669
684,0.0
715,48456901.1998782
2,1, 7,21, 0,16, 0.00,15.00,SummerDesignDay
9,16740033.4800669
684,0.0
715,48266951.9725495
2,1, 7,21, 0,16,15.00,30.00,SummerDesignDay
9,16740033.4800669
684,0.0
715,48047727.67092
2,1, 7,21, 0,16,30.00,45.00,SummerDesignDay
9,16740033.4800669
684,0.0
715,47755049.6734648
2,1, 7,21, 0,16,45.00,60.00,SummerDesignDay
9,16740033.4800669
684,0.0
715,47454185.4968844
2,1, 7,21, 0,17, 0.00,15.00,SummerDesignDay
9,16740033.4800669
684,0.0
715,47096731.1873995
2,1, 7,21, 0,17,15.00,30.00,SummerDesignDay
9,16740033.4800669
684,0.0
715,46721461.4378677
2,1, 7,21, 0,17,30.00,45.00,SummerDesignDay
9,16740033.4800669
684,0.0
715,46287121.7377916
2,1, 7,21, 0,17,45.00,60.00,SummerDesignDay
9,16740033.4800669
684,0.0
715,45856582.9663935
2,1, 7,21, 0,18, 0.00,15.00,SummerDesignDay
9,16740033.4800669
684,0.0
715,45296246.3474733
2,1, 7,21, 0,18,15.00,30.00,SummerDesignDay
9,16740033.4800669
684,0.0
715,44689879.3078226
2,1, 7,21, 0,18,30.00,45.00,SummerDesignDay
9,16740033.4800669
684,0.0
715,44117307.0367855
2,1, 7,21, 0,18,45.00,60.00,SummerDesignDay
9,16740033.4800669
684,0.0
715,43604658.74612
2,1, 7,21, 0,19, 0.00,15.00,SummerDesignDay
9,16740033.4800669
684,0.0
715,42822253.0604631
2,1, 7,21, 0,19,15.00,30.00,SummerDesignDay
9,16740033.4800669
684,0.0
715,41983457.1857563
2,1, 7,21, 0,19,30.00,45.00,SummerDesignDay
9,16740033.4800669
684,0.0
715,41046101.4981993
2,1, 7,21, 0,19,45.00,60.00,SummerDesignDay
9,16740033.4800669
684,0.0
715,40010402.8616677
2,1, 7,21, 0,20, 0.00,15.00,SummerDesignDay
9,16740033.4800669
684,0.0
715,39008585.3736741
2,1, 7,21, 0,20,15.00,30.00,SummerDesignDay
9,16740033.4800669
684,0.0
715,37906828.8836207
2,1, 7,21, 0,20,30.00,45.00,SummerDesignDay
9,16740033.4800669
684,0.0
715,36681586.147901
2,1, 7,21, 0,20,45.00,60.00,SummerDesignDay
9,16740033.4800669
684,0.0
715,35304367.9307166
2,1, 7,21, 0,21, 0.00,15.00,SummerDesignDay
9,16740033.4800669
684,0.0
715,33887444.8648487
2,1, 7,21, 0,21,15.00,30.00,SummerDesignDay
9,16740033.4800669
684,0.0
715,32027710.881349
2,1, 7,21, 0,21,30.00,45.00,SummerDesignDay
9,16740033.4800669
684,0.0
715,30065939.215634
2,1, 7,21, 0,21,45.00,60.00,SummerDesignDay
9,16740033.4800669
684,0.0
715,28371138.4519892
2,1, 7,21, 0,22, 0.00,15.00,SummerDesignDay
9,16740033.4800669
684,0.0
715,26799307.540397
2,1, 7,21, 0,22,15.00,30.00,SummerDesignDay
9,16740033.4800669
684,0.0
715,25555093.1367367
2,1, 7,21, 0,22,30.00,45.00,SummerDesignDay
9,16740033.4800669
684,0.0
715,24469282.8485673
2,1, 7,21, 0,22,45.00,60.00,SummerDesignDay
9,16740033.4800669
684,0.0
715,23465274.2148284
2,1, 7,21, 0,23, 0.00,15.00,SummerDesignDay
9,16740033.4800669
684,0.0
715,943550.009209398
2,1, 7,21, 0,23,15.00,30.00,SummerDesignDay
9,16740033.4800669
684,0.0
715,3695609.47036283
2,1, 7,21, 0,23,30.00,45.00,SummerDesignDay
9,16740033.4800669
684,0.0
715,5482071.75844747
2,1, 7,21, 0,23,45.00,60.00,SummerDesignDay
9,16740033.4800669
684,0.0
715,7096779.65935128
2,1, 7,21, 0,24, 0.00,15.00,SummerDesignDay
9,16740033.4800669
684,0.0
715,6484935.07927103
2,1, 7,21, 0,24,15.00,30.00,SummerDesignDay
9,16740033.4800669
684,0.0
715,6668140.9665407
2,1, 7,21, 0,24,30.00,45.00,SummerDesignDay
9,16740033.4800669
684,0.0
715,6538973.460129
2,1, 7,21, 0,24,45.00,60.00,SummerDesignDay
9,16740033.4800669
684,0.0
715,6396382.84417317
1,OSLO/FORNEBU ANN CLG .4% CONDNS DP=>MDB,  59.90,  10.62,   1.00,  17.00
2,1, 7,21, 0, 1, 0.00,15.00,SummerDesignDay
9,16740033.4800669
684,0.0
715,214998.432323235
2,1, 7,21, 0, 1,15.00,30.00,SummerDesignDay
9,16740033.4800669
684,0.0
715,116683.374666237
2,1, 7,21, 0, 1,30.00,45.00,SummerDesignDay
9,16740033.4800669
684,0.0
715,11879.0946338648
2,1, 7,21, 0, 1,45.00,60.00,SummerDesignDay
9,16740033.4800669
684,0.0
715,0.0
2,1, 7,21, 0, 2, 0.00,15.00,SummerDesignDay
9,16740033.4800669
684,0.0
715,0.0
2,1, 7,21, 0, 2,15.00,30.00,SummerDesignDay
9,16740033.4800669
684,0.0
715,0.0
2,1, 7,21, 0, 2,30.00,45.00,SummerDesignDay
9,16740033.4800669
684,0.0
715,0.0
2,1, 7,21, 0, 2,45.00,60.00,SummerDesignDay
9,16740033.4800669
684,0.0
715,0.0
2,1, 7,21, 0, 3, 0.00,15.00,SummerDesignDay
9,16740033.4800669
684,111362.606847007
715,0.0
2,1, 7,21, 0, 3,15.00,30.00,SummerDesignDay
9,16740033.4800669
684,138674.292031995
715,0.0
2,1, 7,21, 0, 3,30.00,45.00,SummerDesignDay
9,16740033.4800669
684,202818.544789879
715,0.0
2,1, 7,21, 0, 3,45.00,60.00,SummerDesignDay
9,16740033.4800669
684,255604.058826176
715,0.0
2,1, 7,21, 0, 4, 0.00,15.00,SummerDesignDay
9,16740033.4800669
684,305966.48958418
715,0.0
2,1, 7,21, 0, 4,15.00,30.00,SummerDesignDay
9,16740033.4800669
684,354837.773567319
715,0.0
2,1, 7,21, 0, 4,30.00,45.00,SummerDesignDay
9,16740033.4800669
684,363436.416978307
715,0.0
2,1, 7,21, 0, 4,45.00,60.00,SummerDesignDay
9,16740033.4800669
684,325800.805595706
715,0.0
2,1, 7,21, 0, 5, 0.00,15.00,SummerDesignDay
9,16740033.4800669
684,225694.337296437
715,0.0
2,1, 7,21, 0, 5,15.00,30.00,SummerDesignDay
9,16740033.4800669
684,77433.4043393538
715,0.0
2,1, 7,21, 0, 5,30.00,45.00,SummerDesignDay
9,16740033.4800669
684,0.0
715,0.0
2,1, 7,21, 0, 5,45.00,60.00,SummerDesignDay
9,16740033.4800669
684,0.0
715,0.0
2,1, 7,21, 0, 6, 0.00,15.00,SummerDesignDay
9,16740033.4800669
684,0.0
715,0.0
2,1, 7,21, 0, 6,15.00,30.00,SummerDesignDay
9,16740033.4800669
684,0.0
715,0.0
2,1, 7,21, 0, 6,30.00,45.00,SummerDesignDay
9,16740033.4800669
684,0.0
715,0.0
2,1, 7,21, 0, 6,45.00,60.00,SummerDesignDay
9,16740033.4800669
684,0.0
715,459604.36377235
2,1, 7,21, 0, 7, 0.00,15.00,SummerDesignDay
9,16740033.4800669
684,0.0
715,19211385.4112008
2,1, 7,21, 0, 7,15.00,30.00,SummerDesignDay
9,16740033.4800669
684,0.0
715,7894796.60090809
2,1, 7,21, 0, 7,30.00,45.00,SummerDesignDay
9,16740033.4800669
684,0.0
715,12965376.5097305
2,1, 7,21, 0, 7,45.00,60.00,SummerDesignDay
9,16740033.4800669
684,0.0
715,9454011.76037562
2,1, 7,21, 0, 8, 0.00,15.00,SummerDesignDay
9,16740033.4800669
684,0.0
715,10286356.6838972
2,1, 7,21, 0, 8,15.00,30.00,SummerDesignDay
9,16740033.4800669
684,0.0
715,11066289.8916062
2,1, 7,21, 0, 8,30.00,45.00,SummerDesignDay
9,16740033.4800669
684,0.0
715,11893997.4379785
2,1, 7,21, 0, 8,45.00,60.00,SummerDesignDay
9,16740033.4800669
684,0.0
715,12735021.3192874
2,1, 7,21, 0, 9, 0.00,15.00,SummerDesignDay
9,16740033.4800669
684,0.0
715,13693063.6325789
2,1, 7,21, 0, 9,15.00,30.00,SummerDesignDay
9,16740033.4800669
684,0.0
715,14676198.9538895
2,1, 7,21, 0, 9,30.00,45.00,SummerDesignDay
9,16740033.4800669
684,0.0
715,15642493.4791053
2,1, 7,21, 0, 9,45.00,60.00,SummerDesignDay
9,16740033.4800669
684,0.0
715,16709584.7040749
2,1, 7,21, 0,10, 0.00,15.00,SummerDesignDay
9,16740033.4800669
684,0.0
715,17809369.1818601
2,1, 7,21, 0,10,15.00,30.00,SummerDesignDay
9,16740033.4800669
684,0.0
715,18897253.0356271
2,1, 7,21, 0,10,30.00,45.00,SummerDesignDay
9,16740033.4800669
684,0.0
715,19969963.4880318
2,1, 7,21, 0,10,45.00,60.00,SummerDesignDay
9,16740033.4800669
684,0.0
715,21011162.8698115
2,1, 7,21, 0,11, 0.00,15.00,SummerDesignDay
9,16740033.4800669
684,0.0
715,21965142.4071875
2,1, 7,21, 0,11,15.00,30.00,SummerDesignDay
9,16740033.4800669
684,0.0
715,22883868.1267013
2,1, 7,21, 0,11,30.00,45.00,SummerDesignDay
9,16740033.4800669
684,0.0
715,23745528.7605669
2,1, 7,21, 0,11,45.00,60.00,SummerDesignDay
9,16740033.4800669
684,0.0
715,24564821.318488
2,1, 7,21, 0,12, 0.00,15.00,SummerDesignDay
9,16740033.4800669
684,0.0
715,25257211.3825204
2,1, 7,21, 0,12,15.00,30.00,SummerDesignDay
9,16740033.4800669
684,0.0
715,25900313.2369753
2,1, 7,21, 0,12,30.00,45.00,SummerDesignDay
9,16740033.4800669
684,0.0
715,26509787.6398476
2,1, 7,21, 0,12,45.00,60.00,SummerDesignDay
9,16740033.4800669
684,0.0
715,27094436.2360762
2,1, 7,21, 0,13, 0.00,15.00,SummerDesignDay
9,16740033.4800669
684,0.0
715,27589130.4089562
2,1, 7,21, 0,13,15.00,30.00,SummerDesignDay
9,16740033.4800669
684,0.0
715,28052196.5582446
2,1, 7,21, 0,13,30.00,45.00,SummerDesignDay
9,16740033.4800669
684,0.0
715,28496303.6364969
2,1, 7,21, 0,13,45.00,60.00,SummerDesignDay
9,16740033.4800669
684,0.0
715,28905011.3216883
2,1, 7,21, 0,14, 0.00,15.00,SummerDesignDay
9,16740033.4800669
684,0.0
715,29184988.1565226
2,1, 7,21, 0,14,15.00,30.00,SummerDesignDay
9,16740033.4800669
684,0.0
715,29414154.7713862
2,1, 7,21, 0,14,30.00,45.00,SummerDesignDay
9,16740033.4800669
684,0.0
715,29590749.9668187
2,1, 7,21, 0,14,45.00,60.00,SummerDesignDay
9,16740033.4800669
684,0.0
715,29755152.3013307
2,1, 7,21, 0,15, 0.00,15.00,SummerDesignDay
9,16740033.4800669
684,0.0
715,29895022.2291062
2,1, 7,21, 0,15,15.00,30.00,SummerDesignDay
9,16740033.4800669
684,0.0
715,30071205.1772399
2,1, 7,21, 0,15,30.00,45.00,SummerDesignDay
9,16740033.4800669
684,0.0
715,30244181.7806298
2,1, 7,21, 0,15,45.00,60.00,SummerDesignDay
9,16740033.4800669
684,0.0
715,30391722.1245123
2,1, 7,21, 0,16, 0.00,15.00,SummerDesignDay
9,16740033.4800669
684,0.0
715,30336307.3765523
2,1, 7,21, 0,16,15.00,30.00,SummerDesignDay
9,16740033.4800669
684,0.0
715,30235138.1809752
2,1, 7,21, 0,16,30.00,45.00,SummerDesignDay
9,16740033.4800669
684,0.0
715,30061506.7852979
2,1, 7,21, 0,16,45.00,60.00,SummerDesignDay
9,16740033.4800669
684,0.0
715,29865152.9685592
2,1, 7,21, 0,17, 0.00,15.00,SummerDesignDay
9,16740033.4800669
684,0.0
715,29706756.0061203
2,1, 7,21, 0,17,15.00,30.00,SummerDesignDay
9,16740033.4800669
684,0.0
715,29612553.9108975
2,1, 7,21, 0,17,30.00,45.00,SummerDesignDay
9,16740033.4800669
684,0.0
715,29515810.5596315
2,1, 7,21, 0,17,45.00,60.00,SummerDesignDay
9,16740033.4800669
684,0.0
715,29386350.2890318
2,1, 7,21, 0,18, 0.00,15.00,SummerDesignDay
9,16740033.4800669
684,0.0
715,29162369.7025385
2,1, 7,21, 0,18,15.00,30.00,SummerDesignDay
9,16740033.4800669
684,0.0
715,28888866.9515823
2,1, 7,21, 0,18,30.00,45.00,SummerDesignDay
9,16740033.4800669
684,0.0
715,28599821.660406
2,1, 7,21, 0,18,45.00,60.00,SummerDesignDay
9,16740033.4800669
684,0.0
715,28309222.488681
2,1, 7,21, 0,19, 0.00,15.00,SummerDesignDay
9,16740033.4800669
684,0.0
715,27861457.7360247
2,1, 7,21, 0,19,15.00,30.00,SummerDesignDay
9,16740033.4800669
684,0.0
715,27353680.9523216
2,1, 7,21, 0,19,30.00,45.00,SummerDesignDay
9,16740033.4800669
684,0.0
715,26770301.3796329
2,1, 7,21, 0,19,45.00,60.00,SummerDesignDay
9,16740033.4800669
684,0.0
715,26068739.7693796
2,1, 7,21, 0,20, 0.00,15.00,SummerDesignDay
9,16740033.4800669
684,0.0
715,25248623.6965436
2,1, 7,21, 0,20,15.00,30.00,SummerDesignDay
9,16740033.4800669
684,0.0
715,24328656.2349508
2,1, 7,21, 0,20,30.00,45.00,SummerDesignDay
9,16740033.4800669
684,0.0
715,23321006.2764025
2,1, 7,21, 0,20,45.00,60.00,SummerDesignDay
9,16740033.4800669
684,0.0
715,22200257.013765
2,1, 7,21, 0,21, 0.00,15.00,SummerDesignDay
9,16740033.4800669
684,0.0
715,21020031.5720715
2,1, 7,21, 0,21,15.00,30.00,SummerDesignDay
9,16740033.4800669
684,0.0
715,19538266.6991426
2,1, 7,21, 0,21,30.00,45.00,SummerDesignDay
9,16740033.4800669
684,0.0
715,18048192.8300721
2,1, 7,21, 0,21,45.00,60.00,SummerDesignDay
9,16740033.4800669
684,0.0
715,16605232.7591931
2,1, 7,21, 0,22, 0.00,15.00,SummerDesignDay
9,16740033.4800669
684,0.0
715,15205074.7496802
2,1, 7,21, 0,22,15.00,30.00,SummerDesignDay
9,16740033.4800669
684,0.0
715,14133331.1315676
2,1, 7,21, 0,22,30.00,45.00,SummerDesignDay
9,16740033.4800669
684,0.0
715,13237534.7420679
2,1, 7,21, 0,22,45.00,60.00,SummerDesignDay
9,16740033.4800669
684,0.0
715,12418173.9174625
2,1, 7,21, 0,23, 0.00,15.00,SummerDesignDay
9,16740033.4800669
684,0.0
715,0.0
2,1, 7,21, 0,23,15.00,30.00,SummerDesignDay
9,16740033.4800669
684,0.0
715,0.0
2,1, 7,21, 0,23,30.00,45.00,SummerDesignDay
9,16740033.4800669
684,0.0
715,0.0
2,1, 7,21, 0,23,45.00,60.00,SummerDesignDay
9,16740033.4800669
684,0.0
715,0.0
2,1, 7,21, 0,24, 0.00,15.00,SummerDesignDay
9,16740033.4800669
684,0.0
715,0.0
2,1, 7,21, 0,24,15.00,30.00,SummerDesignDay
9,16740033.4800669
684,0.0
715,534007.03910412
2,1, 7,21, 0,24,30.00,45.00,SummerDesignDay
9,16740033.4800669
684,0.0
715,243998.321413193
2,1, 7,21, 0,24,45.00,60.00,SummerDesignDay
9,16740033.4800669
684,0.0
715,149986.187639766
1,OSLO/FORNEBU ANN CLG .4% CONDNS ENTH=>MDB,  59.90,  10.62,   1.00,  17.00
2,1, 7,21, 0, 1, 0.00,15.00,SummerDesignDay
9,16740033.4800669
684,0.0
715,3932987.78411994
2,1, 7,21, 0, 1,15.00,30.00,SummerDesignDay
9,16740033.4800669
684,0.0
715,3711338.16362658
2,1, 7,21, 0, 1,30.00,45.00,SummerDesignDay
9,16740033.4800669
684,0.0
715,3478201.2464981
2,1, 7,21, 0, 1,45.00,60.00,SummerDesignDay
9,16740033.4800669
684,0.0
715,3237777.53816494
2,1, 7,21, 0, 2, 0.00,15.00,SummerDesignDay
9,16740033.4800669
684,0.0
715,3028231.07558142
2,1, 7,21, 0, 2,15.00,30.00,SummerDesignDay
9,16740033.4800669
684,0.0
715,2817151.19676264
2,1, 7,21, 0, 2,30.00,45.00,SummerDesignDay
9,16740033.4800669
684,0.0
715,2604590.86458987
2,1, 7,21, 0, 2,45.00,60.00,SummerDesignDay
9,16740033.4800669
684,0.0
715,2390889.50167714
2,1, 7,21, 0, 3, 0.00,15.00,SummerDesignDay
9,16740033.4800669
684,0.0
715,2194233.96750909
2,1, 7,21, 0, 3,15.00,30.00,SummerDesignDay
9,16740033.4800669
684,0.0
715,1998017.50200966
2,1, 7,21, 0, 3,30.00,45.00,SummerDesignDay
9,16740033.4800669
684,0.0
715,1802086.43280626
2,1, 7,21, 0, 3,45.00,60.00,SummerDesignDay
9,16740033.4800669
684,0.0
715,1606511.92888414
2,1, 7,21, 0, 4, 0.00,15.00,SummerDesignDay
9,16740033.4800669
684,0.0
715,1411347.8119783
2,1, 7,21, 0, 4,15.00,30.00,SummerDesignDay
9,16740033.4800669
684,0.0
715,1216638.4652744
2,1, 7,21, 0, 4,30.00,45.00,SummerDesignDay
9,16740033.4800669
684,0.0
715,1182080.22624763
2,1, 7,21, 0, 4,45.00,60.00,SummerDesignDay
9,16740033.4800669
684,0.0
715,1293975.23811555
2,1, 7,21, 0, 5, 0.00,15.00,SummerDesignDay
9,16740033.4800669
684,0.0
715,1598156.85679143
2,1, 7,21, 0, 5,15.00,30.00,SummerDesignDay
9,16740033.4800669
684,0.0
715,2061206.61020558
2,1, 7,21, 0, 5,30.00,45.00,SummerDesignDay
9,16740033.4800669
684,0.0
715,2487914.69749276
2,1, 7,21, 0, 5,45.00,60.00,SummerDesignDay
9,16740033.4800669
684,0.0
715,2870348.73256027
2,1, 7,21, 0, 6, 0.00,15.00,SummerDesignDay
9,16740033.4800669
684,0.0
715,3294284.26199857
2,1, 7,21, 0, 6,15.00,30.00,SummerDesignDay
9,16740033.4800669
684,0.0
715,3690727.34285069
2,1, 7,21, 0, 6,30.00,45.00,SummerDesignDay
9,16740033.4800669
684,0.0
715,4103688.03185807
2,1, 7,21, 0, 6,45.00,60.00,SummerDesignDay
9,16740033.4800669
684,0.0
715,4465500.13832804
2,1, 7,21, 0, 7, 0.00,15.00,SummerDesignDay
9,16740033.4800669
684,0.0
715,34211536.8003227
2,1, 7,21, 0, 7,15.00,30.00,SummerDesignDay
9,16740033.4800669
684,0.0
715,17991792.6931455
2,1, 7,21, 0, 7,30.00,45.00,SummerDesignDay
9,16740033.4800669
684,0.0
715,24932718.5594404
2,1, 7,21, 0, 7,45.00,60.00,SummerDesignDay
9,16740033.4800669
684,0.0
715,19021303.4160235
2,1, 7,21, 0, 8, 0.00,15.00,SummerDesignDay
9,16740033.4800669
684,0.0
715,19498086.2867483
2,1, 7,21, 0, 8,15.00,30.00,SummerDesignDay
9,16740033.4800669
684,0.0
715,20028430.5670074
2,1, 7,21, 0, 8,30.00,45.00,SummerDesignDay
9,16740033.4800669
684,0.0
715,20710782.2691348
2,1, 7,21, 0, 8,45.00,60.00,SummerDesignDay
9,16740033.4800669
684,0.0
715,21470358.0856053
2,1, 7,21, 0, 9, 0.00,15.00,SummerDesignDay
9,16740033.4800669
684,0.0
715,22382924.4254943
2,1, 7,21, 0, 9,15.00,30.00,SummerDesignDay
9,16740033.4800669
684,0.0
715,23335281.1852604
2,1, 7,21, 0, 9,30.00,45.00,SummerDesignDay
9,16740033.4800669
684,0.0
715,24274356.9155639
2,1, 7,21, 0, 9,45.00,60.00,SummerDesignDay
9,16740033.4800669
684,0.0
715,25372015.3277776
2,1, 7,21, 0,10, 0.00,15.00,SummerDesignDay
9,16740033.4800669
684,0.0
715,26513254.4042535
2,1, 7,21, 0,10,15.00,30.00,SummerDesignDay
9,16740033.4800669
684,0.0
715,27638060.8694151
2,1, 7,21, 0,10,30.00,45.00,SummerDesignDay
9,16740033.4800669
684,0.0
715,28766818.213627
2,1, 7,21, 0,10,45.00,60.00,SummerDesignDay
9,16740033.4800669
684,0.0
715,29772891.2242096
2,1, 7,21, 0,11, 0.00,15.00,SummerDesignDay
9,16740033.4800669
684,0.0
715,31011062.8080655
2,1, 7,21, 0,11,15.00,30.00,SummerDesignDay
9,16740033.4800669
684,0.0
715,32772858.4513471
2,1, 7,21, 0,11,30.00,45.00,SummerDesignDay
9,16740033.4800669
684,0.0
715,34166039.2679332
2,1, 7,21, 0,11,45.00,60.00,SummerDesignDay
9,16740033.4800669
684,0.0
715,35879571.455523
2,1, 7,21, 0,12, 0.00,15.00,SummerDesignDay
9,16740033.4800669
684,0.0
715,37308010.1302737
2,1, 7,21, 0,12,15.00,30.00,SummerDesignDay
9,16740033.4800669
684,0.0
715,38902560.6234193
2,1, 7,21, 0,12,30.00,45.00,SummerDesignDay
9,16740033.4800669
684,0.0
715,40723629.9099116
2,1, 7,21, 0,12,45.00,60.00,SummerDesignDay
9,16740033.4800669
684,0.0
715,42298299.4016439
2,1, 7,21, 0,13, 0.00,15.00,SummerDesignDay
9,16740033.4800669
684,0.0
715,43769799.7428239
2,1, 7,21, 0,13,15.00,30.00,SummerDesignDay
9,16740033.4800669
684,0.0
715,45158261.1386933
2,1, 7,21, 0,13,30.00,45.00,SummerDesignDay
9,16740033.4800669
684,0.0
715,46513102.9366404
2,1, 7,21, 0,13,45.00,60.00,SummerDesignDay
9,16740033.4800669
684,0.0
715,47818104.4478498
2,1, 7,21, 0,14, 0.00,15.00,SummerDesignDay
9,16740033.4800669
684,0.0
715,48745655.6896184
2,1, 7,21, 0,14,15.00,30.00,SummerDesignDay
9,16740033.4800669
684,0.0
715,49586593.2103796
2,1, 7,21, 0,14,30.00,45.00,SummerDesignDay
9,16740033.4800669
684,0.0
715,50336876.3690031
2,1, 7,21, 0,14,45.00,60.00,SummerDesignDay
9,16740033.4800669
684,0.0
715,51066862.1000536
2,1, 7,21, 0,15, 0.00,15.00,SummerDesignDay
9,16740033.4800669
684,0.0
715,51441441.3408135
2,1, 7,21, 0,15,15.00,30.00,SummerDesignDay
9,16740033.4800669
684,0.0
715,51858276.497085
2,1, 7,21, 0,15,30.00,45.00,SummerDesignDay
9,16740033.4800669
684,0.0
715,52255156.2131562
2,1, 7,21, 0,15,45.00,60.00,SummerDesignDay
9,16740033.4800669
684,0.0
715,52625219.1188377
2,1, 7,21, 0,16, 0.00,15.00,SummerDesignDay
9,16740033.4800669
684,0.0
715,52303331.9292284
2,1, 7,21, 0,16,15.00,30.00,SummerDesignDay
9,16740033.4800669
684,0.0
715,51901418.0285334
2,1, 7,21, 0,16,30.00,45.00,SummerDesignDay
9,16740033.4800669
684,0.0
715,51360677.4317055
2,1, 7,21, 0,16,45.00,60.00,SummerDesignDay
9,16740033.4800669
684,0.0
715,50795475.3791096
2,1, 7,21, 0,17, 0.00,15.00,SummerDesignDay
9,16740033.4800669
684,0.0
715,50077587.0843528
2,1, 7,21, 0,17,15.00,30.00,SummerDesignDay
9,16740033.4800669
684,0.0
715,49279237.9015
2,1, 7,21, 0,17,30.00,45.00,SummerDesignDay
9,16740033.4800669
684,0.0
715,48372160.2053473
2,1, 7,21, 0,17,45.00,60.00,SummerDesignDay
9,16740033.4800669
684,0.0
715,47492549.6354878
2,1, 7,21, 0,18, 0.00,15.00,SummerDesignDay
9,16740033.4800669
684,0.0
715,46415366.5073636
2,1, 7,21, 0,18,15.00,30.00,SummerDesignDay
9,16740033.4800669
684,0.0
715,45269276.1360083
2,1, 7,21, 0,18,30.00,45.00,SummerDesignDay
9,16740033.4800669
684,0.0
715,44401059.6027172
2,1, 7,21, 0,18,45.00,60.00,SummerDesignDay
9,16740033.4800669
684,0.0
715,43618768.0905596
2,1, 7,21, 0,19, 0.00,15.00,SummerDesignDay
9,16740033.4800669
684,0.0
715,42485448.7503039
2,1, 7,21, 0,19,15.00,30.00,SummerDesignDay
9,16740033.4800669
684,0.0
715,41258713.0919674
2,1, 7,21, 0,19,30.00,45.00,SummerDesignDay
9,16740033.4800669
684,0.0
715,39888874.5581103
2,1, 7,21, 0,19,45.00,60.00,SummerDesignDay
9,16740033.4800669
684,0.0
715,38403502.1846542
2,1, 7,21, 0,20, 0.00,15.00,SummerDesignDay
9,16740033.4800669
684,0.0
715,36980316.1036277
2,1, 7,21, 0,20,15.00,30.00,SummerDesignDay
9,16740033.4800669
684,0.0
715,35482145.0034856
2,1, 7,21, 0,20,30.00,45.00,SummerDesignDay
9,16740033.4800669
684,0.0
715,33872957.4501232
2,1, 7,21, 0,20,45.00,60.00,SummerDesignDay
9,16740033.4800669
684,0.0
715,32116001.058236
2,1, 7,21, 0,21, 0.00,15.00,SummerDesignDay
9,16740033.4800669
684,0.0
715,30582810.2063356
2,1, 7,21, 0,21,15.00,30.00,SummerDesignDay
9,16740033.4800669
684,0.0
715,28630264.5326951
2,1, 7,21, 0,21,30.00,45.00,SummerDesignDay
9,16740033.4800669
684,0.0
715,26676405.4403569
2,1, 7,21, 0,21,45.00,60.00,SummerDesignDay
9,16740033.4800669
684,0.0
715,25051523.7341194
2,1, 7,21, 0,22, 0.00,15.00,SummerDesignDay
9,16740033.4800669
684,0.0
715,23525013.6136017
2,1, 7,21, 0,22,15.00,30.00,SummerDesignDay
9,16740033.4800669
684,0.0
715,22397562.1085273
2,1, 7,21, 0,22,30.00,45.00,SummerDesignDay
9,16740033.4800669
684,0.0
715,21474806.3645146
2,1, 7,21, 0,22,45.00,60.00,SummerDesignDay
9,16740033.4800669
684,0.0
715,20633490.8099357
2,1, 7,21, 0,23, 0.00,15.00,SummerDesignDay
9,16740033.4800669
684,0.0
715,0.0
2,1, 7,21, 0,23,15.00,30.00,SummerDesignDay
9,16740033.4800669
684,0.0
715,3336378.47462904
2,1, 7,21, 0,23,30.00,45.00,SummerDesignDay
9,16740033.4800669
684,0.0
715,8285013.32484304
2,1, 7,21, 0,23,45.00,60.00,SummerDesignDay
9,16740033.4800669
684,0.0
715,2999485.07937438
2,1, 7,21, 0,24, 0.00,15.00,SummerDesignDay
9,16740033.4800669
684,0.0
715,4413225.05988429
2,1, 7,21, 0,24,15.00,30.00,SummerDesignDay
9,16740033.4800669
684,0.0
715,4340053.90495038
2,1, 7,21, 0,24,30.00,45.00,SummerDesignDay
9,16740033.4800669
684,0.0
715,4168320.41920689
2,1, 7,21, 0,24,45.00,60.00,SummerDesignDay
9,16740033.4800669
684,0.0
715,3967486.2091389
1,OSLO/FORNEBU ANN CLG .4% CONDNS WB=>MDB,  59.90,  10.62,   1.00,  17.00
2,1, 7,21, 0, 1, 0.00,15.00,SummerDesignDay
9,16740033.4800669
684,0.0
715,4385071.71258793
2,1, 7,21, 0, 1,15.00,30.00,SummerDesignDay
9,16740033.4800669
684,0.0
715,4181409.60178233
2,1, 7,21, 0, 1,30.00,45.00,SummerDesignDay
9,16740033.4800669
684,0.0
715,3964572.20432945
2,1, 7,21, 0, 1,45.00,60.00,SummerDesignDay
9,16740033.4800669
684,0.0
715,3737804.61233842
2,1, 7,21, 0, 2, 0.00,15.00,SummerDesignDay
9,16740033.4800669
684,0.0
715,3539555.49956123
2,1, 7,21, 0, 2,15.00,30.00,SummerDesignDay
9,16740033.4800669
684,0.0
715,3338221.81889971
2,1, 7,21, 0, 2,30.00,45.00,SummerDesignDay
9,16740033.4800669
684,0.0
715,3134201.69775063
2,1, 7,21, 0, 2,45.00,60.00,SummerDesignDay
9,16740033.4800669
684,0.0
715,2928068.74964118
2,1, 7,21, 0, 3, 0.00,15.00,SummerDesignDay
9,16740033.4800669
684,0.0
715,2738052.62950834
2,1, 7,21, 0, 3,15.00,30.00,SummerDesignDay
9,16740033.4800669
684,0.0
715,2547829.74969308
2,1, 7,21, 0, 3,30.00,45.00,SummerDesignDay
9,16740033.4800669
684,0.0
715,2357368.98105294
2,1, 7,21, 0, 3,45.00,60.00,SummerDesignDay
9,16740033.4800669
684,0.0
715,2166830.21654256
2,1, 7,21, 0, 4, 0.00,15.00,SummerDesignDay
9,16740033.4800669
684,0.0
715,1976337.6130736
2,1, 7,21, 0, 4,15.00,30.00,SummerDesignDay
9,16740033.4800669
684,0.0
715,1785993.26968866
2,1, 7,21, 0, 4,30.00,45.00,SummerDesignDay
9,16740033.4800669
684,0.0
715,1753640.04448753
2,1, 7,21, 0, 4,45.00,60.00,SummerDesignDay
9,16740033.4800669
684,0.0
715,1865847.46618799
2,1, 7,21, 0, 5, 0.00,15.00,SummerDesignDay