Program Version,EnergyPlus, Version 8.5.0-c87e61b44b, YMD=2018.01.12 11:41
1,5,Environment Title[],Latitude[deg],Longitude[deg],Time Zone[],Elevation[m]
2,6,Day of Simulation[],Month[],Day of Month[],DST Indicator[1=yes 0=no],Hour[],StartMinute[],EndMinute[],DayType
3,3,Cumulative Day of Simulation[],Month[],Day of Month[],DST Indicator[1=yes 0=no],DayType  ! When Daily Meters Requested
4,2,Cumulative Days of Simulation[],Month[]  ! When Monthly Meters Requested
5,1,Cumulative Days of Simulation[] ! When Run Period Meters Requested
9,1,Electricity:Facility [J] !TimeStep
715,1,DistrictCooling:Facility [J] !TimeStep
684,1,DistrictHeating:Facility [J] !TimeStep
End of Data Dictionary
1,OSLO/FORNEBU ANN CLG .4% CONDNS DB=>MWB,  59.90,  10.62,   1.00,  17.00
2,1, 7,21, 0, 1, 0.00,15.00,SummerDesignDay
9,16740033.4800669
684,0.0
715,7224044.83639833
2,1, 7,21, 0, 1,15.00,30.00,SummerDesignDay
9,16740033.4800669
684,0.0
715,7083195.46766253
2,1, 7,21, 0, 1,30.00,45.00,SummerDesignDay
9,16740033.4800669
684,0.0
715,6936192.06076475
2,1, 7,21, 0, 1,45.00,60.00,SummerDesignDay
9,16740033.4800669
684,0.0
715,6789833.04626567
2,1, 7,21, 0, 2, 0.00,15.00,SummerDesignDay
9,16740033.4800669
684,0.0
715,6669105.84590744
2,1, 7,21, 0, 2,15.00,30.00,SummerDesignDay
9,16740033.4800669
684,0.0
715,6548970.22789075
2,1, 7,21, 0, 2,30.00,45.00,SummerDesignDay
9,16740033.4800669
684,0.0
715,6430923.28467719
2,1, 7,21, 0, 2,45.00,60.00,SummerDesignDay
9,16740033.4800669
684,0.0
715,6312497.64253362
2,1, 7,21, 0, 3, 0.00,15.00,SummerDesignDay
9,16740033.4800669
684,0.0
715,6207392.29857273
2,1, 7,21, 0, 3,15.00,30.00,SummerDesignDay
9,16740033.4800669
684,0.0
715,6104561.43777628
2,1, 7,21, 0, 3,30.00,45.00,SummerDesignDay
9,16740033.4800669
684,0.0
715,6004200.43905768
2,1, 7,21, 0, 3,45.00,60.00,SummerDesignDay
9,16740033.4800669
684,0.0
715,5899984.30121302
2,1, 7,21, 0, 4, 0.00,15.00,SummerDesignDay
9,16740033.4800669
684,0.0
715,5794806.75485656
2,1, 7,21, 0, 4,15.00,30.00,SummerDesignDay
9,16740033.4800669
684,0.0
715,5688880.50592199
2,1, 7,21, 0, 4,30.00,45.00,SummerDesignDay
9,16740033.4800669
684,0.0
715,5702787.72888309
2,1, 7,21, 0, 4,45.00,60.00,SummerDesignDay
9,16740033.4800669
684,0.0
715,5830819.62445552
2,1, 7,21, 0, 5, 0.00,15.00,SummerDesignDay
9,16740033.4800669
684,0.0
715,6091555.91375855
2,1, 7,21, 0, 5,15.00,30.00,SummerDesignDay
9,16740033.4800669
684,0.0
715,6436714.5409666
2,1, 7,21, 0, 5,30.00,45.00,SummerDesignDay
9,16740033.4800669
684,0.0
715,6769559.30062234
2,1, 7,21, 0, 5,45.00,60.00,SummerDesignDay
9,16740033.4800669
684,0.0
715,7099289.17886808
2,1, 7,21, 0, 6, 0.00,15.00,SummerDesignDay
9,16740033.4800669
684,0.0
715,7462495.80384928
2,1, 7,21, 0, 6,15.00,30.00,SummerDesignDay
9,16740033.4800669
684,0.0
715,7808044.80013669
2,1, 7,21, 0, 6,30.00,45.00,SummerDesignDay
9,16740033.4800669
684,0.0
715,8195254.3646587
2,1, 7,21, 0, 6,45.00,60.00,SummerDesignDay
9,16740033.4800669
684,0.0
715,9122949.47175306
2,1, 7,21, 0, 7, 0.00,15.00,SummerDesignDay
9,16740033.4800669
684,0.0
715,40877133.4236289
2,1, 7,21, 0, 7,15.00,30.00,SummerDesignDay
9,16740033.4800669
684,0.0
715,25603833.8126613
2,1, 7,21, 0, 7,30.00,45.00,SummerDesignDay
9,16740033.4800669
684,0.0
715,31877941.9154579
2,1, 7,21, 0, 7,45.00,60.00,SummerDesignDay
9,16740033.4800669
684,0.0
715,26897075.6811537
2,1, 7,21, 0, 8, 0.00,15.00,SummerDesignDay
9,16740033.4800669
684,0.0
715,27985617.5181177
2,1, 7,21, 0, 8,15.00,30.00,SummerDesignDay
9,16740033.4800669
684,0.0
715,29178921.0682736
2,1, 7,21, 0, 8,30.00,45.00,SummerDesignDay
9,16740033.4800669
684,0.0
715,30391684.643282
2,1, 7,21, 0, 8,45.00,60.00,SummerDesignDay
9,16740033.4800669
684,0.0
715,31536822.841243
2,1, 7,21, 0, 9, 0.00,15.00,SummerDesignDay
9,16740033.4800669
684,0.0
715,32815891.5914499
2,1, 7,21, 0, 9,15.00,30.00,SummerDesignDay
9,16740033.4800669
684,0.0
715,34514418.6178057
2,1, 7,21, 0, 9,30.00,45.00,SummerDesignDay
9,16740033.4800669
684,0.0
715,35777626.1602485
2,1, 7,21, 0, 9,45.00,60.00,SummerDesignDay
9,16740033.4800669
684,0.0
715,37223544.0291543
2,1, 7,21, 0,10, 0.00,15.00,SummerDesignDay
9,16740033.4800669
684,0.0
715,38564051.1617298
2,1, 7,21, 0,10,15.00,30.00,SummerDesignDay
9,16740033.4800669
684,0.0
715,39853421.7171207
2,1, 7,21, 0,10,30.00,45.00,SummerDesignDay
9,16740033.4800669
684,0.0
715,41086460.1715821
2,1, 7,21, 0,10,45.00,60.00,SummerDesignDay
9,16740033.4800669
684,0.0
715,42255360.6130617
2,1, 7,21, 0,11, 0.00,15.00,SummerDesignDay
9,16740033.4800669
684,0.0
715,43256375.939844
2,1, 7,21, 0,11,15.00,30.00,SummerDesignDay
9,16740033.4800669
684,0.0
715,44193317.8057439
2,1, 7,21, 0,11,30.00,45.00,SummerDesignDay
9,16740033.4800669
684,0.0
715,45065804.2324703
2,1, 7,21, 0,11,45.00,60.00,SummerDesignDay
9,16740033.4800669
684,0.0
715,46050416.9232641
2,1, 7,21, 0,12, 0.00,15.00,SummerDesignDay
9,16740033.4800669
684,0.0
715,46898152.3758889
2,1, 7,21, 0,12,15.00,30.00,SummerDesignDay
9,16740033.4800669
684,0.0
715,47790976.1969409
2,1, 7,21, 0,12,30.00,45.00,SummerDesignDay
9,16740033.4800669
684,0.0
715,48677742.8496141
2,1, 7,21, 0,12,45.00,60.00,SummerDesignDay
9,16740033.4800669
684,0.0
715,49539414.1380749
2,1, 7,21, 0,13, 0.00,15.00,SummerDesignDay
9,16740033.4800669
684,0.0
715,50251283.0183896
2,1, 7,21, 0,13,15.00,30.00,SummerDesignDay
9,16740033.4800669
684,0.0
715,50924043.5259942
2,1, 7,21, 0,13,30.00,45.00,SummerDesignDay
9,16740033.4800669
684,0.0
715,51569632.2347214
2,1, 7,21, 0,13,45.00,60.00,SummerDesignDay
9,16740033.4800669
684,0.0
715,52168878.4839871
2,1, 7,21, 0,14, 0.00,15.00,SummerDesignDay
9,16740033.4800669
684,0.0
715,52537295.5400097
2,1, 7,21, 0,14,15.00,30.00,SummerDesignDay
9,16740033.4800669
684,0.0
715,52840753.3364322
2,1, 7,21, 0,14,30.00,45.00,SummerDesignDay
9,16740033.4800669
684,0.0
715,53075191.3402477
2,1, 7,21, 0,14,45.00,60.00,SummerDesignDay
9,16740033.4800669
684,0.0
715,53295340.6057049
2,1, 7,21, 0,15, 0.00,15.00,SummerDesignDay
9,16740033.4800669
684,0.0
715,53394741.5627366
2,1, 7,21, 0,15,15.00,30.00,SummerDesignDay
9,16740033.4800669
684,0.0
715,53566719.117599
2,1, 7,21, 0,15,30.00,45.00,SummerDesignDay
9,16740033.4800669
684,0.0
715,53749818.2056184
2,1, 7,21, 0,15,45.00,60.00,SummerDesignDay
9,16740033.4800669
684,0.0
715,53919155.4676949
2,1, 7,21, 0,16, 0.00,15.00,SummerDesignDay
9,16740033.4800669
684,0.0
715,53708317.7653435
2,1, 7,21, 0,16,15.00,30.00,SummerDesignDay
9,16740033.4800669
684,0.0
715,53463120.9810819
2,1, 7,21, 0,16,30.00,45.00,SummerDesignDay
9,16740033.4800669
684,0.0
715,53126672.7777859
2,1, 7,21, 0,16,45.00,60.00,SummerDesignDay
9,16740033.4800669
684,0.0
715,52774265.6168717
2,1, 7,21, 0,17, 0.00,15.00,SummerDesignDay
9,16740033.4800669
684,0.0
715,52388732.3079581
2,1, 7,21, 0,17,15.00,30.00,SummerDesignDay
9,16740033.4800669
684,0.0
715,51979589.9193748
2,1, 7,21, 0,17,30.00,45.00,SummerDesignDay
9,16740033.4800669
684,0.0
715,51497783.4318922
2,1, 7,21, 0,17,45.00,60.00,SummerDesignDay
9,16740033.4800669
684,0.0
715,51023895.9182292
2,1, 7,21, 0,18, 0.00,15.00,SummerDesignDay
9,16740033.4800669
684,0.0
715,50431596.7715269
2,1, 7,21, 0,18,15.00,30.00,SummerDesignDay
9,16740033.4800669
684,0.0
715,49787149.9660915
2,1, 7,21, 0,18,30.00,45.00,SummerDesignDay
9,16740033.4800669
684,0.0
715,49184354.7437151
2,1, 7,21, 0,18,45.00,60.00,SummerDesignDay
9,16740033.4800669
684,0.0
715,48671736.0465077
2,1, 7,21, 0,19, 0.00,15.00,SummerDesignDay
9,16740033.4800669
684,0.0
715,47907067.733039
2,1, 7,21, 0,19,15.00,30.00,SummerDesignDay
9,16740033.4800669
684,0.0
715,47083843.6420906
2,1, 7,21, 0,19,30.00,45.00,SummerDesignDay
9,16740033.4800669
684,0.0
715,46138127.1222095
2,1, 7,21, 0,19,45.00,60.00,SummerDesignDay
9,16740033.4800669
684,0.0
715,45065363.8696157
2,1, 7,21, 0,20, 0.00,15.00,SummerDesignDay
9,16740033.4800669
684,0.0
715,43961124.8852392
2,1, 7,21, 0,20,15.00,30.00,SummerDesignDay
9,16740033.4800669
684,0.0
715,42735428.6887435
2,1, 7,21, 0,20,30.00,45.00,SummerDesignDay
9,16740033.4800669
684,0.0
715,41363017.5418762
2,1, 7,21, 0,20,45.00,60.00,SummerDesignDay
9,16740033.4800669
684,0.0
715,39796613.0606311
2,1, 7,21, 0,21, 0.00,15.00,SummerDesignDay
9,16740033.4800669
684,0.0
715,38149966.8439589
2,1, 7,21, 0,21,15.00,30.00,SummerDesignDay
9,16740033.4800669
684,0.0
715,35931674.8114829
2,1, 7,21, 0,21,30.00,45.00,SummerDesignDay
9,16740033.4800669
684,0.0
715,33557821.3925832
2,1, 7,21, 0,21,45.00,60.00,SummerDesignDay
9,16740033.4800669
684,0.0
715,31265249.8574128
2,1, 7,21, 0,22, 0.00,15.00,SummerDesignDay
9,16740033.4800669
684,0.0
715,29318925.0476945
2,1, 7,21, 0,22,15.00,30.00,SummerDesignDay
9,16740033.4800669
684,0.0
715,27873831.1374679
2,1, 7,21, 0,22,30.00,45.00,SummerDesignDay
9,16740033.4800669
684,0.0
715,26656523.5044643
2,1, 7,21, 0,22,45.00,60.00,SummerDesignDay
9,16740033.4800669
684,0.0
715,25571468.696296
2,1, 7,21, 0,23, 0.00,15.00,SummerDesignDay
9,16740033.4800669
684,0.0
715,2228043.62578441
2,1, 7,21, 0,23,15.00,30.00,SummerDesignDay
9,16740033.4800669
684,0.0
715,4999592.1599568
2,1, 7,21, 0,23,30.00,45.00,SummerDesignDay
9,16740033.4800669
684,0.0
715,6411251.66611972
2,1, 7,21, 0,23,45.00,60.00,SummerDesignDay
9,16740033.4800669
684,0.0
715,7877534.82892941
2,1, 7,21, 0,24, 0.00,15.00,SummerDesignDay
9,16740033.4800669
684,0.0
715,7416154.70870302
2,1, 7,21, 0,24,15.00,30.00,SummerDesignDay
9,16740033.4800669
684,0.0
715,7542145.40559012
2,1, 7,21, 0,24,30.00,45.00,SummerDesignDay
9,16740033.4800669
684,0.0
715,7415351.21334491
2,1, 7,21, 0,24,45.00,60.00,SummerDesignDay
9,16740033.4800669
684,0.0
715,7279758.01963068
1,OSLO/FORNEBU ANN CLG .4% CONDNS DP=>MDB,  59.90,  10.62,   1.00,  17.00
2,1, 7,21, 0, 1, 0.00,15.00,SummerDesignDay
9,16740033.4800669
684,0.0
715,1762847.54985026
2,1, 7,21, 0, 1,15.00,30.00,SummerDesignDay
9,16740033.4800669
684,0.0
715,1564412.7461083
2,1, 7,21, 0, 1,30.00,45.00,SummerDesignDay
9,16740033.4800669
684,0.0
715,1355959.96310001
2,1, 7,21, 0, 1,45.00,60.00,SummerDesignDay
9,16740033.4800669
684,0.0
715,1237784.45110912
2,1, 7,21, 0, 2, 0.00,15.00,SummerDesignDay
9,16740033.4800669
684,0.0
715,1138404.87328358
2,1, 7,21, 0, 2,15.00,30.00,SummerDesignDay
9,16740033.4800669
684,0.0
715,1040430.94482251
2,1, 7,21, 0, 2,30.00,45.00,SummerDesignDay
9,16740033.4800669
684,0.0
715,943689.209444945
2,1, 7,21, 0, 2,45.00,60.00,SummerDesignDay
9,16740033.4800669
684,0.0
715,848110.392372211
2,1, 7,21, 0, 3, 0.00,15.00,SummerDesignDay
9,16740033.4800669
684,0.0
715,759467.388580474
2,1, 7,21, 0, 3,15.00,30.00,SummerDesignDay
9,16740033.4800669
684,16740.1160357617
715,672190.75348571
2,1, 7,21, 0, 3,30.00,45.00,SummerDesignDay
9,16740033.4800669
684,109532.777056778
715,586084.493158554
2,1, 7,21, 0, 3,45.00,60.00,SummerDesignDay
9,16740033.4800669
684,143607.640660362
715,501050.450034672
2,1, 7,21, 0, 4, 0.00,15.00,SummerDesignDay
9,16740033.4800669
684,204963.797784099
715,417001.560432865
2,1, 7,21, 0, 4,15.00,30.00,SummerDesignDay
9,16740033.4800669
684,256083.715739601
715,333861.31275283
2,1, 7,21, 0, 4,30.00,45.00,SummerDesignDay
9,16740033.4800669
684,257423.287549168
715,341275.259485339
2,1, 7,21, 0, 4,45.00,60.00,SummerDesignDay
9,16740033.4800669
684,200894.961234678
715,432858.675646177
2,1, 7,21, 0, 5, 0.00,15.00,SummerDesignDay
9,16740033.4800669
684,61410.2228377148
715,620859.056755051
2,1, 7,21, 0, 5,15.00,30.00,SummerDesignDay
9,16740033.4800669
684,0.0
715,894497.753466152
2,1, 7,21, 0, 5,30.00,45.00,SummerDesignDay
9,16740033.4800669
684,0.0
715,1142533.73413741
2,1, 7,21, 0, 5,45.00,60.00,SummerDesignDay
9,16740033.4800669
684,0.0
715,1358119.92725152
2,1, 7,21, 0, 6, 0.00,15.00,SummerDesignDay
9,16740033.4800669
684,0.0
715,1570439.08560655
2,1, 7,21, 0, 6,15.00,30.00,SummerDesignDay
9,16740033.4800669
684,0.0
715,2256639.16864403
2,1, 7,21, 0, 6,30.00,45.00,SummerDesignDay
9,16740033.4800669
684,0.0
715,2697646.1909448
2,1, 7,21, 0, 6,45.00,60.00,SummerDesignDay
9,16740033.4800669
684,0.0
715,3064336.82859923
2,1, 7,21, 0, 7, 0.00,15.00,SummerDesignDay
9,16740033.4800669
684,0.0
715,25621591.4049824
2,1, 7,21, 0, 7,15.00,30.00,SummerDesignDay
9,16740033.4800669
684,0.0
715,13896879.3381477
2,1, 7,21, 0, 7,30.00,45.00,SummerDesignDay
9,16740033.4800669
684,0.0
715,20449645.4530632
2,1, 7,21, 0, 7,45.00,60.00,SummerDesignDay
9,16740033.4800669
684,0.0
715,15427206.9178879
2,1, 7,21, 0, 8, 0.00,15.00,SummerDesignDay
9,16740033.4800669
684,0.0
715,16222841.3025315
2,1, 7,21, 0, 8,15.00,30.00,SummerDesignDay
9,16740033.4800669
684,0.0
715,16985004.7640619
2,1, 7,21, 0, 8,30.00,45.00,SummerDesignDay
9,16740033.4800669
684,0.0
715,17828815.2413373
2,1, 7,21, 0, 8,45.00,60.00,SummerDesignDay
9,16740033.4800669
684,0.0
715,18695133.5998293
2,1, 7,21, 0, 9, 0.00,15.00,SummerDesignDay
9,16740033.4800669
684,0.0
715,19683179.1239225
2,1, 7,21, 0, 9,15.00,30.00,SummerDesignDay
9,16740033.4800669
684,0.0
715,20696929.4222981
2,1, 7,21, 0, 9,30.00,45.00,SummerDesignDay
9,16740033.4800669
684,0.0
715,21648514.3141952
2,1, 7,21, 0, 9,45.00,60.00,SummerDesignDay
9,16740033.4800669
684,0.0
715,22670274.3238313
2,1, 7,21, 0,10, 0.00,15.00,SummerDesignDay
9,16740033.4800669
684,0.0
715,23760095.1455257
2,1, 7,21, 0,10,15.00,30.00,SummerDesignDay
9,16740033.4800669
684,0.0
715,24854781.7255963
2,1, 7,21, 0,10,30.00,45.00,SummerDesignDay
9,16740033.4800669
684,0.0
715,25944264.7655903
2,1, 7,21, 0,10,45.00,60.00,SummerDesignDay
9,16740033.4800669
684,0.0
715,27014150.6458918
2,1, 7,21, 0,11, 0.00,15.00,SummerDesignDay
9,16740033.4800669
684,0.0
715,28015417.9169327
2,1, 7,21, 0,11,15.00,30.00,SummerDesignDay
9,16740033.4800669
684,0.0
715,28981165.847105
2,1, 7,21, 0,11,30.00,45.00,SummerDesignDay
9,16740033.4800669
684,0.0
715,29870554.9973813
2,1, 7,21, 0,11,45.00,60.00,SummerDesignDay
9,16740033.4800669
684,0.0
715,30746026.4381382
2,1, 7,21, 0,12, 0.00,15.00,SummerDesignDay
9,16740033.4800669
684,0.0
715,31498822.5575453
2,1, 7,21, 0,12,15.00,30.00,SummerDesignDay
9,16740033.4800669
684,0.0
715,32216900.8347282
2,1, 7,21, 0,12,30.00,45.00,SummerDesignDay
9,16740033.4800669
684,0.0
715,32890600.1958137
2,1, 7,21, 0,12,45.00,60.00,SummerDesignDay
9,16740033.4800669
684,0.0
715,33517884.7196763
2,1, 7,21, 0,13, 0.00,15.00,SummerDesignDay
9,16740033.4800669
684,0.0
715,34045527.7856768
2,1, 7,21, 0,13,15.00,30.00,SummerDesignDay
9,16740033.4800669
684,0.0
715,34526370.7420906
2,1, 7,21, 0,13,30.00,45.00,SummerDesignDay
9,16740033.4800669
684,0.0
715,34975332.8714721
2,1, 7,21, 0,13,45.00,60.00,SummerDesignDay
9,16740033.4800669
684,0.0
715,35373708.62654
2,1, 7,21, 0,14, 0.00,15.00,SummerDesignDay
9,16740033.4800669
684,0.0
715,35638146.1819079
2,1, 7,21, 0,14,15.00,30.00,SummerDesignDay
9,16740033.4800669
684,0.0
715,36071347.8131449
2,1, 7,21, 0,14,30.00,45.00,SummerDesignDay
9,16740033.4800669
684,0.0
715,36345064.1094167
2,1, 7,21, 0,14,45.00,60.00,SummerDesignDay
9,16740033.4800669
684,0.0
715,36780457.2249195
2,1, 7,21, 0,15, 0.00,15.00,SummerDesignDay
9,16740033.4800669
684,0.0
715,36997688.9160803
2,1, 7,21, 0,15,15.00,30.00,SummerDesignDay
9,16740033.4800669
684,0.0
715,37335681.410078
2,1, 7,21, 0,15,30.00,45.00,SummerDesignDay
9,16740033.4800669
684,0.0
715,37668629.5995804
2,1, 7,21, 0,15,45.00,60.00,SummerDesignDay
9,16740033.4800669
684,0.0
715,37980698.537008
2,1, 7,21, 0,16, 0.00,15.00,SummerDesignDay
9,16740033.4800669
684,0.0
715,37892668.2770724
2,1, 7,21, 0,16,15.00,30.00,SummerDesignDay
9,16740033.4800669
684,0.0
715,37766539.5361158
2,1, 7,21, 0,16,30.00,45.00,SummerDesignDay
9,16740033.4800669
684,0.0
715,37546874.7789231
2,1, 7,21, 0,16,45.00,60.00,SummerDesignDay
9,16740033.4800669
684,0.0
715,37315107.6865659
2,1, 7,21, 0,17, 0.00,15.00,SummerDesignDay
9,16740033.4800669
684,0.0
715,37048280.4553459
2,1, 7,21, 0,17,15.00,30.00,SummerDesignDay
9,16740033.4800669
684,0.0
715,36732806.2110767
2,1, 7,21, 0,17,30.00,45.00,SummerDesignDay
9,16740033.4800669
684,0.0
715,36398998.0489961
2,1, 7,21, 0,17,45.00,60.00,SummerDesignDay
9,16740033.4800669
684,0.0
715,36238326.7293111
2,1, 7,21, 0,18, 0.00,15.00,SummerDesignDay
9,16740033.4800669
684,0.0
715,35935930.9134276
2,1, 7,21, 0,18,15.00,30.00,SummerDesignDay
9,16740033.4800669
684,0.0
715,35561542.9422927
2,1, 7,21, 0,18,30.00,45.00,SummerDesignDay
9,16740033.4800669
684,0.0
715,35148721.5205453
2,1, 7,21, 0,18,45.00,60.00,SummerDesignDay
9,16740033.4800669
684,0.0
715,34732719.9438748
2,1, 7,21, 0,19, 0.00,15.00,SummerDesignDay
9,16740033.4800669
684,0.0
715,34075419.7884049
2,1, 7,21, 0,19,15.00,30.00,SummerDesignDay
9,16740033.4800669
684,0.0
715,33312524.4010496
2,1, 7,21, 0,19,30.00,45.00,SummerDesignDay
9,16740033.4800669
684,0.0
715,32388588.0328951
2,1, 7,21, 0,19,45.00,60.00,SummerDesignDay
9,16740033.4800669
684,0.0
715,31392619.9427668
2,1, 7,21, 0,20, 0.00,15.00,SummerDesignDay
9,16740033.4800669
684,0.0
715,30437079.3391245
2,1, 7,21, 0,20,15.00,30.00,SummerDesignDay
9,16740033.4800669
684,0.0
715,29363372.7499359
2,1, 7,21, 0,20,30.00,45.00,SummerDesignDay
9,16740033.4800669
684,0.0
715,28185517.8175617
2,1, 7,21, 0,20,45.00,60.00,SummerDesignDay
9,16740033.4800669
684,0.0
715,26894831.6892649
2,1, 7,21, 0,21, 0.00,15.00,SummerDesignDay
9,16740033.4800669
684,0.0
715,25537650.1182922
2,1, 7,21, 0,21,15.00,30.00,SummerDesignDay
9,16740033.4800669
684,0.0
715,23888170.1580656
2,1, 7,21, 0,21,30.00,45.00,SummerDesignDay
9,16740033.4800669
684,0.0
715,22225961.7370724
2,1, 7,21, 0,21,45.00,60.00,SummerDesignDay
9,16740033.4800669
684,0.0
715,20619789.4544387
2,1, 7,21, 0,22, 0.00,15.00,SummerDesignDay
9,16740033.4800669
684,0.0
715,18991279.3604751
2,1, 7,21, 0,22,15.00,30.00,SummerDesignDay
9,16740033.4800669
684,0.0
715,17715941.6599294
2,1, 7,21, 0,22,30.00,45.00,SummerDesignDay
9,16740033.4800669
684,0.0
715,16664195.1849216
2,1, 7,21, 0,22,45.00,60.00,SummerDesignDay
9,16740033.4800669
684,0.0
715,15729063.1997656
2,1, 7,21, 0,23, 0.00,15.00,SummerDesignDay
9,16740033.4800669
684,0.0
715,0.0
2,1, 7,21, 0,23,15.00,30.00,SummerDesignDay
9,16740033.4800669
684,0.0
715,1206416.48005001
2,1, 7,21, 0,23,30.00,45.00,SummerDesignDay
9,16740033.4800669
684,0.0
715,1390751.36420292
2,1, 7,21, 0,23,45.00,60.00,SummerDesignDay
9,16740033.4800669
684,0.0
715,887429.256691072
2,1, 7,21, 0,24, 0.00,15.00,SummerDesignDay
9,16740033.4800669
684,0.0
715,1956611.54926611
2,1, 7,21, 0,24,15.00,30.00,SummerDesignDay
9,16740033.4800669
684,0.0
715,2163398.28284211
2,1, 7,21, 0,24,30.00,45.00,SummerDesignDay
9,16740033.4800669
684,0.0
715,1925875.88079911
2,1, 7,21, 0,24,45.00,60.00,SummerDesignDay
9,16740033.4800669
684,0.0
715,1667204.15299336
1,OSLO/FORNEBU ANN CLG .4% CONDNS ENTH=>MDB,  59.90,  10.62,   1.00,  17.00
2,1, 7,21, 0, 1, 0.00,15.00,SummerDesignDay
9,16740033.4800669
684,0.0
715,5671482.73517801
2,1, 7,21, 0, 1,15.00,30.00,SummerDesignDay
9,16740033.4800669
684,0.0
715,5472686.33471498
2,1, 7,21, 0, 1,30.00,45.00,SummerDesignDay
9,16740033.4800669
684,0.0
715,5264485.34090707
2,1, 7,21, 0, 1,45.00,60.00,SummerDesignDay
9,16740033.4800669
684,0.0
715,5051667.59967812
2,1, 7,21, 0, 2, 0.00,15.00,SummerDesignDay
9,16740033.4800669
684,0.0
715,4868008.05305814
2,1, 7,21, 0, 2,15.00,30.00,SummerDesignDay
9,16740033.4800669
684,0.0
715,4684280.3400026
2,1, 7,21, 0, 2,30.00,45.00,SummerDesignDay
9,16740033.4800669
684,0.0
715,4500454.67546732
2,1, 7,21, 0, 2,45.00,60.00,SummerDesignDay
9,16740033.4800669
684,0.0
715,4316497.41609987
2,1, 7,21, 0, 3, 0.00,15.00,SummerDesignDay
9,16740033.4800669
684,0.0
715,4148161.1281799
2,1, 7,21, 0, 3,15.00,30.00,SummerDesignDay
9,16740033.4800669
684,0.0
715,3980478.27307321
2,1, 7,21, 0, 3,30.00,45.00,SummerDesignDay
9,16740033.4800669
684,0.0
715,3813363.04005445
2,1, 7,21, 0, 3,45.00,60.00,SummerDesignDay
9,16740033.4800669
684,0.0
715,3646795.15649701
2,1, 7,21, 0, 4, 0.00,15.00,SummerDesignDay
9,16740033.4800669
684,0.0
715,3480741.77264801
2,1, 7,21, 0, 4,15.00,30.00,SummerDesignDay
9,16740033.4800669
684,0.0
715,3315177.97908306
2,1, 7,21, 0, 4,30.00,45.00,SummerDesignDay
9,16740033.4800669
684,0.0
715,3323408.20091714
2,1, 7,21, 0, 4,45.00,60.00,SummerDesignDay
9,16740033.4800669
684,0.0
715,3500422.96889539
2,1, 7,21, 0, 5, 0.00,15.00,SummerDesignDay
9,16740033.4800669
684,0.0
715,3873773.92130891
2,1, 7,21, 0, 5,15.00,30.00,SummerDesignDay
9,16740033.4800669
684,0.0
715,4410369.83025046
2,1, 7,21, 0, 5,30.00,45.00,SummerDesignDay
9,16740033.4800669
684,0.0
715,4889716.27207691
2,1, 7,21, 0, 5,45.00,60.00,SummerDesignDay
9,16740033.4800669
684,0.0
715,5294056.54437539
2,1, 7,21, 0, 6, 0.00,15.00,SummerDesignDay
9,16740033.4800669
684,0.0
715,5681534.70901495
2,1, 7,21, 0, 6,15.00,30.00,SummerDesignDay
9,16740033.4800669
684,0.0
715,6026713.57123168
2,1, 7,21, 0, 6,30.00,45.00,SummerDesignDay
9,16740033.4800669
684,0.0
715,6441689.14200964
2,1, 7,21, 0, 6,45.00,60.00,SummerDesignDay
9,16740033.4800669
684,0.0
715,6825124.53586155
2,1, 7,21, 0, 7, 0.00,15.00,SummerDesignDay
9,16740033.4800669
684,0.0
715,37536911.2806905
2,1, 7,21, 0, 7,15.00,30.00,SummerDesignDay
9,16740033.4800669
684,0.0
715,22533189.0720744
2,1, 7,21, 0, 7,30.00,45.00,SummerDesignDay
9,16740033.4800669
684,0.0
715,29563246.4011463
2,1, 7,21, 0, 7,45.00,60.00,SummerDesignDay
9,16740033.4800669
684,0.0
715,23548816.4408754
2,1, 7,21, 0, 8, 0.00,15.00,SummerDesignDay
9,16740033.4800669
684,0.0
715,24052619.225986
2,1, 7,21, 0, 8,15.00,30.00,SummerDesignDay
9,16740033.4800669
684,0.0
715,24654633.8804559
2,1, 7,21, 0, 8,30.00,45.00,SummerDesignDay
9,16740033.4800669
684,0.0
715,25401062.988777
2,1, 7,21, 0, 8,45.00,60.00,SummerDesignDay
9,16740033.4800669
684,0.0
715,26199321.8588846
2,1, 7,21, 0, 9, 0.00,15.00,SummerDesignDay
9,16740033.4800669
684,0.0
715,27147997.5526217
2,1, 7,21, 0, 9,15.00,30.00,SummerDesignDay
9,16740033.4800669
684,0.0
715,28152159.1492325
2,1, 7,21, 0, 9,30.00,45.00,SummerDesignDay
9,16740033.4800669
684,0.0
715,29137689.669167
2,1, 7,21, 0, 9,45.00,60.00,SummerDesignDay
9,16740033.4800669
684,0.0
715,30232888.1374147
2,1, 7,21, 0,10, 0.00,15.00,SummerDesignDay
9,16740033.4800669
684,0.0
715,31891540.7709107
2,1, 7,21, 0,10,15.00,30.00,SummerDesignDay
9,16740033.4800669
684,0.0
715,33806810.155206
2,1, 7,21, 0,10,30.00,45.00,SummerDesignDay
9,16740033.4800669
684,0.0
715,35766699.7731507
2,1, 7,21, 0,10,45.00,60.00,SummerDesignDay
9,16740033.4800669
684,0.0
715,37624381.0829574
2,1, 7,21, 0,11, 0.00,15.00,SummerDesignDay
9,16740033.4800669
684,0.0
715,39429103.8494494
2,1, 7,21, 0,11,15.00,30.00,SummerDesignDay
9,16740033.4800669
684,0.0
715,41136827.6515144
2,1, 7,21, 0,11,30.00,45.00,SummerDesignDay
9,16740033.4800669
684,0.0
715,42759602.7020321
2,1, 7,21, 0,11,45.00,60.00,SummerDesignDay
9,16740033.4800669
684,0.0
715,44725498.7551251
2,1, 7,21, 0,12, 0.00,15.00,SummerDesignDay
9,16740033.4800669
684,0.0
715,46618562.0106933
2,1, 7,21, 0,12,15.00,30.00,SummerDesignDay
9,16740033.4800669
684,0.0
715,48373815.4800665
2,1, 7,21, 0,12,30.00,45.00,SummerDesignDay
9,16740033.4800669
684,0.0
715,50177531.0458333
2,1, 7,21, 0,12,45.00,60.00,SummerDesignDay
9,16740033.4800669
684,0.0
715,51888928.261778
2,1, 7,21, 0,13, 0.00,15.00,SummerDesignDay
9,16740033.4800669
684,0.0
715,53355766.8055177
2,1, 7,21, 0,13,15.00,30.00,SummerDesignDay
9,16740033.4800669
684,0.0
715,54752893.1791636
2,1, 7,21, 0,13,30.00,45.00,SummerDesignDay
9,16740033.4800669
684,0.0
715,56100107.7000922
2,1, 7,21, 0,13,45.00,60.00,SummerDesignDay
9,16740033.4800669
684,0.0
715,57383598.8182646
2,1, 7,21, 0,14, 0.00,15.00,SummerDesignDay
9,16740033.4800669
684,0.0
715,58293045.3357356
2,1, 7,21, 0,14,15.00,30.00,SummerDesignDay
9,16740033.4800669
684,0.0
715,59058462.0566692
2,1, 7,21, 0,14,30.00,45.00,SummerDesignDay
9,16740033.4800669
684,0.0
715,59701789.5854522
2,1, 7,21, 0,14,45.00,60.00,SummerDesignDay
9,16740033.4800669
684,0.0
715,60321081.4341108
2,1, 7,21, 0,15, 0.00,15.00,SummerDesignDay
9,16740033.4800669
684,0.0
715,60665603.2646594
2,1, 7,21, 0,15,15.00,30.00,SummerDesignDay
9,16740033.4800669
684,0.0
715,61052525.7272626
2,1, 7,21, 0,15,30.00,45.00,SummerDesignDay
9,16740033.4800669
684,0.0
715,61407949.1297916
2,1, 7,21, 0,15,45.00,60.00,SummerDesignDay
9,16740033.4800669
684,0.0
715,61721551.8290034
2,1, 7,21, 0,16, 0.00,15.00,SummerDesignDay
9,16740033.4800669
684,0.0
715,61351343.6057574
2,1, 7,21, 0,16,15.00,30.00,SummerDesignDay
9,16740033.4800669
684,0.0
715,60873810.8143357
2,1, 7,21, 0,16,30.00,45.00,SummerDesignDay
9,16740033.4800669
684,0.0
715,60210480.3906142
2,1, 7,21, 0,16,45.00,60.00,SummerDesignDay
9,16740033.4800669
684,0.0
715,59512722.2682158
2,1, 7,21, 0,17, 0.00,15.00,SummerDesignDay
9,16740033.4800669
684,0.0
715,58700715.3971106
2,1, 7,21, 0,17,15.00,30.00,SummerDesignDay
9,16740033.4800669
684,0.0
715,57786039.1321793
2,1, 7,21, 0,17,30.00,45.00,SummerDesignDay
9,16740033.4800669
684,0.0
715,56731856.4832193
2,1, 7,21, 0,17,45.00,60.00,SummerDesignDay
9,16740033.4800669
684,0.0
715,55689457.0402162
2,1, 7,21, 0,18, 0.00,15.00,SummerDesignDay
9,16740033.4800669
684,0.0
715,54338405.8066993
2,1, 7,21, 0,18,15.00,30.00,SummerDesignDay
9,16740033.4800669
684,0.0
715,52932178.3020239
2,1, 7,21, 0,18,30.00,45.00,SummerDesignDay
9,16740033.4800669
684,0.0
715,51636067.3414032
2,1, 7,21, 0,18,45.00,60.00,SummerDesignDay
9,16740033.4800669
684,0.0
715,50549881.8709961
2,1, 7,21, 0,19, 0.00,15.00,SummerDesignDay
9,16740033.4800669
684,0.0
715,49308007.7818994
2,1, 7,21, 0,19,15.00,30.00,SummerDesignDay
9,16740033.4800669
684,0.0
715,47947640.5330196
2,1, 7,21, 0,19,30.00,45.00,SummerDesignDay
9,16740033.4800669
684,0.0
715,46393939.5299784
2,1, 7,21, 0,19,45.00,60.00,SummerDesignDay
9,16740033.4800669
684,0.0
715,44688440.8257916
2,1, 7,21, 0,20, 0.00,15.00,SummerDesignDay
9,16740033.4800669
684,0.0
715,42977987.7601683
2,1, 7,21, 0,20,15.00,30.00,SummerDesignDay
9,16740033.4800669
684,0.0
715,41205482.8620962
2,1, 7,21, 0,20,30.00,45.00,SummerDesignDay
9,16740033.4800669
684,0.0
715,39336730.5304485
2,1, 7,21, 0,20,45.00,60.00,SummerDesignDay
9,16740033.4800669
684,0.0
715,37309874.6908852
2,1, 7,21, 0,21, 0.00,15.00,SummerDesignDay
9,16740033.4800669
684,0.0
715,35222370.6291159
2,1, 7,21, 0,21,15.00,30.00,SummerDesignDay
9,16740033.4800669
684,0.0
715,32548900.5005622
2,1, 7,21, 0,21,30.00,45.00,SummerDesignDay
9,16740033.4800669
684,0.0
715,29920280.5492314
2,1, 7,21, 0,21,45.00,60.00,SummerDesignDay
9,16740033.4800669
684,0.0
715,27798864.440449
2,1, 7,21, 0,22, 0.00,15.00,SummerDesignDay
9,16740033.4800669
684,0.0
715,26148550.5629148
2,1, 7,21, 0,22,15.00,30.00,SummerDesignDay
9,16740033.4800669
684,0.0
715,24981715.2391185
2,1, 7,21, 0,22,30.00,45.00,SummerDesignDay
9,16740033.4800669
684,0.0
715,23963534.3944233
2,1, 7,21, 0,22,45.00,60.00,SummerDesignDay
9,16740033.4800669
684,0.0
715,23016120.2890227
2,1, 7,21, 0,23, 0.00,15.00,SummerDesignDay
9,16740033.4800669
684,0.0
715,0.0
2,1, 7,21, 0,23,15.00,30.00,SummerDesignDay
9,16740033.4800669
684,0.0
715,2376768.89473511
2,1, 7,21, 0,23,30.00,45.00,SummerDesignDay
9,16740033.4800669
684,0.0
715,3763649.77878546
2,1, 7,21, 0,23,45.00,60.00,SummerDesignDay
9,16740033.4800669
684,0.0
715,5888159.0567369
2,1, 7,21, 0,24, 0.00,15.00,SummerDesignDay
9,16740033.4800669
684,0.0
715,6225566.00926596
2,1, 7,21, 0,24,15.00,30.00,SummerDesignDay
9,16740033.4800669
684,0.0
715,5899321.39108253
2,1, 7,21, 0,24,30.00,45.00,SummerDesignDay
9,16740033.4800669
684,0.0
715,5869396.62930997
2,1, 7,21, 0,24,45.00,60.00,SummerDesignDay
9,16740033.4800669
684,0.0
715,5688311.30765033
1,OSLO/FORNEBU ANN CLG .4% CONDNS WB=>MDB,  59.90,  10.62,   1.00,  17.00
2,1, 7,21, 0, 1, 0.00,15.00,SummerDesignDay
9,16740033.4800669
684,0.0
715,6027736.02218157
2,1, 7,21, 0, 1,15.00,30.00,SummerDesignDay
9,16740033.4800669
684,0.0
715,5850871.63459118
2,1, 7,21, 0, 1,30.00,45.00,SummerDesignDay
9,16740033.4800669
684,0.0
715,5661959.15062539
2,1, 7,21, 0, 1,45.00,60.00,SummerDesignDay
9,16740033.4800669
684,0.0
715,5465449.59256522
2,1, 7,21, 0, 2, 0.00,15.00,SummerDesignDay
9,16740033.4800669
684,0.0
715,5294770.90543314
2,1, 7,21, 0, 2,15.00,30.00,SummerDesignDay
9,16740033.4800669
684,0.0
715,5121850.52254146
2,1, 7,21, 0, 2,30.00,45.00,SummerDesignDay
9,16740033.4800669
684,0.0
715,4947166.10579111
2,1, 7,21, 0, 2,45.00,60.00,SummerDesignDay
9,16740033.4800669
684,0.0
715,4771042.39084189
2,1, 7,21, 0, 3, 0.00,15.00,SummerDesignDay
9,16740033.4800669
684,0.0
715,4609414.93261804
2,1, 7,21, 0, 3,15.00,30.00,SummerDesignDay
9,16740033.4800669
684,0.0
715,4447601.41698442
2,1, 7,21, 0, 3,30.00,45.00,SummerDesignDay
9,16740033.4800669
684,0.0
715,4285678.05233418
2,1, 7,21, 0, 3,45.00,60.00,SummerDesignDay
9,16740033.4800669
684,0.0
715,4123745.00238634
2,1, 7,21, 0, 4, 0.00,15.00,SummerDesignDay
9,16740033.4800669
684,0.0
715,3961863.64236262
2,1, 7,21, 0, 4,15.00,30.00,SummerDesignDay